       N       E                     dE             d eps       ncg     rms          rms(c)
DAV:   1     0.401643939619E+05    0.40164E+05   -0.85904E+05  6800   0.262E+03
DAV:   2     0.145432026944E+05   -0.25621E+05   -0.22885E+05  6640   0.689E+02
DAV:   3     0.343203791898E+04   -0.11111E+05   -0.99965E+04  7040   0.356E+02
DAV:   4    -0.164947367684E+04   -0.50815E+04   -0.47180E+04  9680   0.203E+02
DAV:   5    -0.283509433127E+04   -0.11856E+04   -0.11514E+04 10880   0.106E+02    0.217E+02
RMM:   6    -0.250328948552E+04    0.33180E+03   -0.75937E+03  8779   0.109E+02    0.338E+02
RMM:   7    -0.256935958237E+04   -0.66070E+02   -0.17841E+03  9365   0.362E+01    0.185E+02
RMM:   8    -0.246626174716E+04    0.10310E+03   -0.11626E+03  7258   0.548E+01    0.975E+01
RMM:   9    -0.254170557486E+04   -0.75444E+02   -0.74411E+02  8657   0.194E+01    0.684E+01
RMM:  10    -0.254211641859E+04   -0.41084E+00   -0.17741E+02  8327   0.133E+01    0.371E+01
RMM:  11    -0.253733574198E+04    0.47807E+01   -0.10269E+02  9306   0.813E+00    0.229E+01
RMM:  12    -0.253654357398E+04    0.79217E+00   -0.34933E+01  9593   0.460E+00    0.195E+01
RMM:  13    -0.253658813562E+04   -0.44562E-01   -0.10362E+01 10315   0.175E+00    0.183E+01
RMM:  14    -0.253629517955E+04    0.29296E+00   -0.41364E+00  8803   0.183E+00    0.169E+01
RMM:  15    -0.253657055547E+04   -0.27538E+00   -0.62499E+00  8972   0.210E+00    0.138E+01
RMM:  16    -0.253614912496E+04    0.42143E+00   -0.14112E+00  9065   0.947E-01    0.116E+01
RMM:  17    -0.253570556489E+04    0.44356E+00   -0.11025E+00  9008   0.815E-01    0.978E+00
RMM:  18    -0.253538529072E+04    0.32027E+00   -0.23735E+00  9013   0.125E+00    0.547E+00
RMM:  19    -0.253541693622E+04   -0.31646E-01   -0.10304E+00  9713   0.824E-01    0.352E+00
RMM:  20    -0.253542433315E+04   -0.73969E-02   -0.18592E-01  8909   0.362E-01    0.283E+00
RMM:  21    -0.253544216694E+04   -0.17834E-01   -0.10464E-01  8900   0.254E-01    0.243E+00
RMM:  22    -0.253544247282E+04   -0.30588E-03   -0.49763E-02  8989   0.188E-01    0.149E+00
RMM:  23    -0.253543997277E+04    0.25001E-02   -0.46188E-02  8340   0.137E-01    0.106E+00
RMM:  24    -0.253543896962E+04    0.10031E-02   -0.41002E-02  8672   0.167E-01    0.456E-01
RMM:  25    -0.253544078789E+04   -0.18183E-02   -0.28319E-02  7997   0.120E-01    0.312E-01
RMM:  26    -0.253544193623E+04   -0.11483E-02   -0.14393E-02  6460   0.803E-02    0.155E-01
RMM:  27    -0.253544315426E+04   -0.12180E-02   -0.13525E-02  5242   0.607E-02    0.130E-01
RMM:  28    -0.253544400435E+04   -0.85009E-03   -0.86899E-03  5027   0.587E-02    0.568E-02
RMM:  29    -0.253544457461E+04   -0.57025E-03   -0.58296E-03  4922   0.500E-02    0.411E-02
RMM:  30    -0.253544505110E+04   -0.47649E-03   -0.46451E-03  4903   0.445E-02    0.416E-02
RMM:  31    -0.253544540212E+04   -0.35102E-03   -0.36283E-03  4463   0.404E-02    0.314E-02
RMM:  32    -0.253544565311E+04   -0.25100E-03   -0.26623E-03  4443   0.324E-02    0.240E-02
RMM:  33    -0.253544584732E+04   -0.19420E-03   -0.20924E-03  4424   0.274E-02    0.175E-02
RMM:  34    -0.253544602855E+04   -0.18124E-03   -0.18347E-03  4394   0.244E-02    0.132E-02
RMM:  35    -0.253544616506E+04   -0.13650E-03   -0.13622E-03  4315   0.233E-02    0.121E-02
RMM:  36    -0.253544627787E+04   -0.11282E-03   -0.11368E-03  4268   0.196E-02    0.101E-02
RMM:  37    -0.253544635814E+04   -0.80269E-04   -0.81664E-04  4238   0.160E-02
   1 F= -.25354464E+04 E0= -.25353973E+04  d E =-.253545E+04  mag=   252.9956
       N       E                     dE             d eps       ncg     rms          rms(c)
DAV:   1    -0.253381364004E+04    0.16326E+01   -0.19238E+02  7200   0.115E+01    0.108E+01
RMM:   2    -0.253539560644E+04   -0.15820E+01   -0.10143E+01  7705   0.540E+00    0.810E+00
RMM:   3    -0.253598391001E+04   -0.58830E+00   -0.34891E+00  8576   0.171E+00    0.358E+00
RMM:   4    -0.253598994767E+04   -0.60377E-02   -0.42952E-01  9160   0.728E-01    0.259E+00
RMM:   5    -0.253597275265E+04    0.17195E-01   -0.12647E-01  9626   0.268E-01    0.181E+00
RMM:   6    -0.253595689488E+04    0.15858E-01   -0.58485E-02  8745   0.222E-01    0.121E+00
RMM:   7    -0.253595520353E+04    0.16914E-02   -0.54476E-02  8849   0.205E-01    0.742E-01
RMM:   8    -0.253595669010E+04   -0.14866E-02   -0.13558E-02  9667   0.982E-02    0.262E-01
RMM:   9    -0.253595658949E+04    0.10061E-03   -0.33838E-03  7979   0.625E-02    0.373E-01
RMM:  10    -0.253595651844E+04    0.71048E-04   -0.11239E-03  6169   0.358E-02    0.177E-01
RMM:  11    -0.253595650116E+04    0.17276E-04   -0.94663E-04  5897   0.408E-02
   2 F= -.25359565E+04 E0= -.25359049E+04  d E =-.510143E+00  mag=   252.9997
       N       E                     dE             d eps       ncg     rms          rms(c)
DAV:   1    -0.253593263876E+04    0.23880E-01   -0.27696E+00  6960   0.142E+00    0.142E+00
RMM:   2    -0.253595640057E+04   -0.23762E-01   -0.16628E-01  7634   0.678E-01    0.102E+00
RMM:   3    -0.253596572746E+04   -0.93269E-02   -0.53827E-02  8621   0.205E-01    0.336E-01
RMM:   4    -0.253596547496E+04    0.25250E-03   -0.54858E-03  7927   0.942E-02    0.296E-01
RMM:   5    -0.253596532162E+04    0.15334E-03   -0.15629E-03  6238   0.383E-02    0.216E-01
RMM:   6    -0.253596503387E+04    0.28775E-03   -0.76682E-04  5271   0.387E-02    0.146E-01
RMM:   7    -0.253596497220E+04    0.61667E-04   -0.81811E-04  5618   0.369E-02
   3 F= -.25359650E+04 E0= -.25359137E+04  d E =-.518614E+00  mag=   252.9999
       N       E                     dE             d eps       ncg     rms          rms(c)
DAV:   1    -0.253585562096E+04    0.10941E+00   -0.35158E+01  6880   0.554E+00    0.400E+00
RMM:   2    -0.253602450382E+04   -0.16888E+00   -0.25325E+00  7567   0.278E+00    0.378E+00
RMM:   3    -0.253610538140E+04   -0.80878E-01   -0.72216E-01  8769   0.851E-01    0.154E+00
RMM:   4    -0.253610324866E+04    0.21327E-02   -0.91631E-02  9037   0.302E-01    0.123E+00
RMM:   5    -0.253610015917E+04    0.30895E-02   -0.23725E-02  9553   0.130E-01    0.910E-01
RMM:   6    -0.253609746253E+04    0.26966E-02   -0.21719E-02  8579   0.135E-01    0.475E-01
RMM:   7    -0.253609795627E+04   -0.49374E-03   -0.65273E-03  9024   0.745E-02    0.300E-01
RMM:   8    -0.253609781634E+04    0.13993E-03   -0.13023E-03  6491   0.395E-02    0.155E-01
RMM:   9    -0.253609760831E+04    0.20803E-03   -0.47940E-04  4441   0.336E-02    0.884E-02
RMM:  10    -0.253609751318E+04    0.95129E-04   -0.90226E-04  5112   0.295E-02
   4 F= -.25360975E+04 E0= -.25360438E+04  d E =-.132541E+00  mag=   253.0000
       N       E                     dE             d eps       ncg     rms          rms(c)
DAV:   1    -0.253608247270E+04    0.15136E-01   -0.59924E+00  7040   0.229E+00    0.163E+00
RMM:   2    -0.253611111454E+04   -0.28642E-01   -0.42764E-01  7588   0.113E+00    0.154E+00
RMM:   3    -0.253612490128E+04   -0.13787E-01   -0.12284E-01  8813   0.346E-01    0.623E-01
RMM:   4    -0.253612454099E+04    0.36029E-03   -0.16159E-02  9015   0.124E-01    0.485E-01
RMM:   5    -0.253612398635E+04    0.55464E-03   -0.42125E-03  8731   0.553E-02    0.369E-01
RMM:   6    -0.253612358139E+04    0.40496E-03   -0.34549E-03  7848   0.586E-02    0.188E-01
RMM:   7    -0.253612362950E+04   -0.48109E-04   -0.86628E-04  5838   0.359E-02
   5 F= -.25361236E+04 E0= -.25360691E+04  d E =-.158657E+00  mag=   253.0000
       N       E                     dE             d eps       ncg     rms          rms(c)
DAV:   1    -0.253596344964E+04    0.16013E+00   -0.23685E+01  6880   0.456E+00    0.332E+00
RMM:   2    -0.253607372195E+04   -0.11027E+00   -0.17039E+00  7572   0.227E+00    0.312E+00
RMM:   3    -0.253613015126E+04   -0.56429E-01   -0.50364E-01  8789   0.700E-01    0.125E+00
RMM:   4    -0.253612929530E+04    0.85596E-03   -0.65955E-02  9048   0.251E-01    0.102E+00
RMM:   5    -0.253612758925E+04    0.17060E-02   -0.16791E-02  9557   0.105E-01    0.755E-01
RMM:   6    -0.253612575030E+04    0.18390E-02   -0.13870E-02  8603   0.110E-01    0.412E-01
RMM:   7    -0.253612606747E+04   -0.31717E-03   -0.46006E-03  8641   0.632E-02    0.276E-01
RMM:   8    -0.253612602723E+04    0.40237E-04   -0.95434E-04  5951   0.353E-02
   6 F= -.25361260E+04 E0= -.25360704E+04  d E =-.161055E+00  mag=   253.0000
       N       E                     dE             d eps       ncg     rms          rms(c)
DAV:   1    -0.253610449417E+04    0.21573E-01   -0.45934E+00  7040   0.201E+00    0.142E+00
RMM:   2    -0.253612408684E+04   -0.19593E-01   -0.30513E-01  7549   0.983E-01    0.133E+00
RMM:   3    -0.253613401766E+04   -0.99308E-02   -0.90222E-02  8739   0.305E-01    0.526E-01
RMM:   4    -0.253613369747E+04    0.32019E-03   -0.11125E-02  8574   0.108E-01    0.417E-01
RMM:   5    -0.253613325615E+04    0.44132E-03   -0.25776E-03  7832   0.514E-02    0.330E-01
RMM:   6    -0.253613296715E+04    0.28900E-03   -0.27248E-03  7596   0.528E-02    0.155E-01
RMM:   7    -0.253613303371E+04   -0.66563E-04   -0.59023E-04  5131   0.339E-02
   7 F= -.25361330E+04 E0= -.25360779E+04  d E =-.168062E+00  mag=   253.0000
       N       E                     dE             d eps       ncg     rms          rms(c)
DAV:   1    -0.253591825057E+04    0.21472E+00   -0.45641E+01  6720   0.665E+00    0.593E+00
RMM:   2    -0.253606072291E+04   -0.14247E+00   -0.36252E+00  7537   0.336E+00    0.501E+00
RMM:   3    -0.253618272970E+04   -0.12201E+00   -0.10720E+00  8607   0.103E+00    0.203E+00
RMM:   4    -0.253617768340E+04    0.50463E-02   -0.14120E-01  9060   0.420E-01    0.191E+00
RMM:   5    -0.253617371245E+04    0.39710E-02   -0.39166E-02  9969   0.160E-01    0.118E+00
RMM:   6    -0.253616917464E+04    0.45378E-02   -0.34038E-02  8353   0.195E-01    0.924E-01
RMM:   7    -0.253616957117E+04   -0.39653E-03   -0.11772E-02  9083   0.106E-01    0.360E-01
RMM:   8    -0.253616920663E+04    0.36455E-03   -0.27988E-03  7890   0.596E-02    0.305E-01
RMM:   9    -0.253616899200E+04    0.21462E-03   -0.13356E-03  6976   0.400E-02    0.119E-01
RMM:  10    -0.253616886087E+04    0.13114E-03   -0.15080E-03  6352   0.413E-02    0.985E-02
RMM:  11    -0.253616889137E+04   -0.30505E-04   -0.35372E-04  4314   0.289E-02
   8 F= -.25361689E+04 E0= -.25361139E+04  d E =-.358577E-01  mag=   253.0000
       N       E                     dE             d eps       ncg     rms          rms(c)
DAV:   1    -0.253615726942E+04    0.11591E-01   -0.38068E+00  7440   0.193E+00    0.174E+00
RMM:   2    -0.253616749134E+04   -0.10222E-01   -0.28483E-01  7576   0.938E-01    0.150E+00
RMM:   3    -0.253617718181E+04   -0.96905E-02   -0.84791E-02  8603   0.290E-01    0.586E-01
RMM:   4    -0.253617669372E+04    0.48809E-03   -0.11245E-02  8689   0.125E-01    0.534E-01
RMM:   5    -0.253617637533E+04    0.31839E-03   -0.29815E-03  8549   0.476E-02    0.348E-01
RMM:   6    -0.253617595477E+04    0.42057E-03   -0.27342E-03  7309   0.626E-02    0.238E-01
RMM:   7    -0.253617591133E+04    0.43440E-04   -0.68980E-04  5316   0.356E-02
   9 F= -.25361759E+04 E0= -.25361208E+04  d E =-.428776E-01  mag=   253.0000
       N       E                     dE             d eps       ncg     rms          rms(c)
DAV:   1    -0.253614517578E+04    0.30779E-01   -0.81496E+00  7360   0.272E+00    0.128E+00
RMM:   2    -0.253618526500E+04   -0.40089E-01   -0.34595E-01  7879   0.994E-01    0.881E-01
RMM:   3    -0.253619830997E+04   -0.13045E-01   -0.96581E-02  8650   0.298E-01    0.449E-01
RMM:   4    -0.253619803564E+04    0.27433E-03   -0.10205E-02  8228   0.122E-01    0.380E-01
RMM:   5    -0.253619773420E+04    0.30144E-03   -0.28656E-03  7651   0.516E-02    0.283E-01
RMM:   6    -0.253619736030E+04    0.37390E-03   -0.19411E-03  7190   0.525E-02    0.259E-01
RMM:   7    -0.253619734948E+04    0.10826E-04   -0.10522E-03  6172   0.449E-02    0.190E-01
RMM:   8    -0.253619737825E+04   -0.28770E-04   -0.48210E-04  4761   0.339E-02
  10 F= -.25361974E+04 E0= -.25361431E+04  d E =-.214669E-01  mag=   253.0000
       N       E                     dE             d eps       ncg     rms          rms(c)
DAV:   1    -0.253606971913E+04    0.12763E+00   -0.20215E+01  7360   0.429E+00    0.207E+00
RMM:   2    -0.253616991372E+04   -0.10019E+00   -0.86717E-01  7896   0.157E+00    0.150E+00
RMM:   3    -0.253620314519E+04   -0.33231E-01   -0.24496E-01  8760   0.472E-01    0.750E-01
RMM:   4    -0.253620286984E+04    0.27536E-03   -0.27200E-02  8646   0.185E-01    0.605E-01
RMM:   5    -0.253620216333E+04    0.70651E-03   -0.75692E-03  8842   0.758E-02    0.447E-01
RMM:   6    -0.253620127699E+04    0.88634E-03   -0.50382E-03  8214   0.771E-02    0.382E-01
RMM:   7    -0.253620136190E+04   -0.84910E-04   -0.29575E-03  8285   0.612E-02    0.295E-01
RMM:   8    -0.253620139943E+04   -0.37533E-04   -0.83125E-04  5577   0.387E-02
  11 F= -.25362014E+04 E0= -.25361496E+04  d E =-.254881E-01  mag=   253.0000
       N       E                     dE             d eps       ncg     rms          rms(c)
DAV:   1    -0.253619222232E+04    0.91396E-02   -0.19668E+00  7840   0.133E+00    0.621E-01
RMM:   2    -0.253620167205E+04   -0.94497E-02   -0.81572E-02  7853   0.485E-01    0.428E-01
RMM:   3    -0.253620460153E+04   -0.29295E-02   -0.21946E-02  8418   0.144E-01    0.206E-01
RMM:   4    -0.253620447158E+04    0.12995E-03   -0.20497E-03  6683   0.632E-02    0.184E-01
RMM:   5    -0.253620437704E+04    0.94531E-04   -0.46920E-04  4529   0.312E-02
  12 F= -.25362044E+04 E0= -.25361518E+04  d E =-.284657E-01  mag=   253.0000
       N       E                     dE             d eps       ncg     rms          rms(c)
DAV:   1    -0.253615760442E+04    0.46867E-01   -0.97126E+00  7520   0.308E+00    0.133E+00
RMM:   2    -0.253620262063E+04   -0.45016E-01   -0.42136E-01  7964   0.109E+00    0.939E-01
RMM:   3    -0.253621746233E+04   -0.14842E-01   -0.11714E-01  8624   0.318E-01    0.465E-01
RMM:   4    -0.253621713896E+04    0.32337E-03   -0.12305E-02  8244   0.137E-01    0.445E-01
RMM:   5    -0.253621699044E+04    0.14852E-03   -0.38291E-03  7975   0.570E-02    0.301E-01
RMM:   6    -0.253621657528E+04    0.41516E-03   -0.20632E-03  7435   0.513E-02    0.261E-01
RMM:   7    -0.253621654117E+04    0.34108E-04   -0.11399E-03  6442   0.410E-02    0.169E-01
RMM:   8    -0.253621661752E+04   -0.76349E-04   -0.56531E-04  5100   0.356E-02
  13 F= -.25362166E+04 E0= -.25361667E+04  d E =-.122405E-01  mag=   253.0000
       N       E                     dE             d eps       ncg     rms          rms(c)
DAV:   1    -0.253611612643E+04    0.10041E+00   -0.15897E+01  7360   0.394E+00    0.168E+00
RMM:   2    -0.253618970075E+04   -0.73574E-01   -0.68764E-01  7964   0.139E+00    0.112E+00
RMM:   3    -0.253621443296E+04   -0.24732E-01   -0.19774E-01  8751   0.408E-01    0.603E-01
RMM:   4    -0.253621402366E+04    0.40930E-03   -0.22199E-02  8660   0.170E-01    0.534E-01
RMM:   5    -0.253621366588E+04    0.35778E-03   -0.66378E-03  8563   0.730E-02    0.386E-01
RMM:   6    -0.253621313880E+04    0.52708E-03   -0.35245E-03  8137   0.600E-02    0.325E-01
RMM:   7    -0.253621318505E+04   -0.46252E-04   -0.21961E-03  8103   0.517E-02    0.205E-01
RMM:   8    -0.253621328940E+04   -0.10435E-03   -0.72502E-04  5538   0.355E-02    0.166E-01
RMM:   9    -0.253621331975E+04   -0.30353E-04   -0.26580E-04  4015   0.327E-02
  14 F= -.25362133E+04 E0= -.25361673E+04  d E =-.894271E-02  mag=   253.0000
       N       E                     dE             d eps       ncg     rms          rms(c)
DAV:   1    -0.253619536004E+04    0.17929E-01   -0.37986E+00  7520   0.193E+00    0.827E-01
RMM:   2    -0.253621242691E+04   -0.17067E-01   -0.16079E-01  7890   0.682E-01    0.587E-01
RMM:   3    -0.253621811004E+04   -0.56831E-02   -0.45276E-02  8495   0.201E-01    0.290E-01
RMM:   4    -0.253621791597E+04    0.19406E-03   -0.46981E-03  7696   0.869E-02    0.269E-01
RMM:   5    -0.253621780761E+04    0.10836E-03   -0.12793E-03  5983   0.409E-02    0.187E-01
RMM:   6    -0.253621759947E+04    0.20815E-03   -0.79477E-04  5652   0.370E-02    0.151E-01
RMM:   7    -0.253621757673E+04    0.22740E-04   -0.50059E-04  4775   0.343E-02
  15 F= -.25362176E+04 E0= -.25361698E+04  d E =-.131997E-01  mag=   253.0000
       N       E                     dE             d eps       ncg     rms          rms(c)
DAV:   1    -0.253621138760E+04    0.62119E-02   -0.10285E+00  7760   0.101E+00    0.454E-01
RMM:   2    -0.253621613435E+04   -0.47467E-02   -0.45505E-02  7941   0.358E-01    0.353E-01
RMM:   3    -0.253621783749E+04   -0.17031E-02   -0.13502E-02  8611   0.106E-01    0.170E-01
RMM:   4    -0.253621780392E+04    0.33566E-04   -0.14291E-03  5933   0.481E-02    0.170E-01
RMM:   5    -0.253621779023E+04    0.13695E-04   -0.34913E-04  4242   0.286E-02
  16 F= -.25362178E+04 E0= -.25361691E+04  d E =-.134132E-01  mag=   253.0000
       N       E                     dE             d eps       ncg     rms          rms(c)
DAV:   1    -0.253620662712E+04    0.11177E-01   -0.45445E+00  7600   0.209E+00    0.895E-01
RMM:   2    -0.253622275934E+04   -0.16132E-01   -0.20114E-01  7748   0.795E-01    0.771E-01
RMM:   3    -0.253622955702E+04   -0.67977E-02   -0.62609E-02  8739   0.250E-01    0.363E-01
RMM:   4    -0.253622938597E+04    0.17105E-03   -0.68432E-03  8603   0.936E-02    0.322E-01
RMM:   5    -0.253622923760E+04    0.14837E-03   -0.14601E-03  6657   0.403E-02    0.234E-01
RMM:   6    -0.253622902036E+04    0.21724E-03   -0.12788E-03  6553   0.445E-02    0.183E-01
RMM:   7    -0.253622901291E+04    0.74595E-05   -0.75744E-04  5701   0.381E-02
  17 F= -.25362290E+04 E0= -.25361821E+04  d E =-.112227E-01  mag=   253.0000
       N       E                     dE             d eps       ncg     rms          rms(c)
DAV:   1    -0.253601630308E+04    0.21272E+00   -0.40656E+01  7440   0.627E+00    0.270E+00
RMM:   2    -0.253616248622E+04   -0.14618E+00   -0.18237E+00  7662   0.242E+00    0.230E+00
RMM:   3    -0.253622831435E+04   -0.65828E-01   -0.61122E-01  8916   0.783E-01    0.109E+00
RMM:   4    -0.253622773089E+04    0.58346E-03   -0.72919E-02  9235   0.275E-01    0.968E-01
RMM:   5    -0.253622650611E+04    0.12248E-02   -0.17311E-02  9687   0.109E-01    0.708E-01
RMM:   6    -0.253622488102E+04    0.16251E-02   -0.12082E-02  8421   0.120E-01    0.547E-01
RMM:   7    -0.253622522064E+04   -0.33962E-03   -0.78697E-03  9169   0.846E-02    0.290E-01
RMM:   8    -0.253622524028E+04   -0.19639E-04   -0.15688E-03  7287   0.381E-02    0.197E-01
RMM:   9    -0.253622506970E+04    0.17058E-03   -0.52063E-04  4799   0.360E-02    0.119E-01
RMM:  10    -0.253622506881E+04    0.88435E-06   -0.89336E-04  5430   0.321E-02
  18 F= -.25362251E+04 E0= -.25361850E+04  d E =-.727859E-02  mag=   253.0000
       N       E                     dE             d eps       ncg     rms          rms(c)
DAV:   1    -0.253616978707E+04    0.55283E-01   -0.13042E+01  7520   0.355E+00    0.150E+00
RMM:   2    -0.253621557486E+04   -0.45788E-01   -0.58826E-01  7782   0.136E+00    0.124E+00
RMM:   3    -0.253623551187E+04   -0.19937E-01   -0.18652E-01  8824   0.428E-01    0.584E-01
RMM:   4    -0.253623503807E+04    0.47380E-03   -0.20663E-02  8936   0.158E-01    0.523E-01
RMM:   5    -0.253623463346E+04    0.40461E-03   -0.49046E-03  8541   0.639E-02    0.368E-01
RMM:   6    -0.253623416197E+04    0.47149E-03   -0.37558E-03  7872   0.700E-02    0.291E-01
RMM:   7    -0.253623426854E+04   -0.10657E-03   -0.21084E-03  8021   0.482E-02    0.148E-01
RMM:   8    -0.253623429401E+04   -0.25469E-04   -0.32126E-04  4198   0.271E-02
  19 F= -.25362343E+04 E0= -.25361905E+04  d E =-.165038E-01  mag=   253.0000
       N       E                     dE             d eps       ncg     rms          rms(c)
DAV:   1    -0.253622570418E+04    0.85644E-02   -0.28946E+00  8000   0.174E+00    0.965E-01
RMM:   2    -0.253623459356E+04   -0.88894E-02   -0.13703E-01  7515   0.680E-01    0.800E-01
RMM:   3    -0.253623967267E+04   -0.50791E-02   -0.46060E-02  8665   0.217E-01    0.316E-01
RMM:   4    -0.253623949736E+04    0.17531E-03   -0.52633E-03  8334   0.833E-02    0.297E-01
RMM:   5    -0.253623938193E+04    0.11544E-03   -0.12034E-03  6353   0.386E-02    0.216E-01
RMM:   6    -0.253623926921E+04    0.11272E-03   -0.85574E-04  5796   0.381E-02    0.131E-01
RMM:   7    -0.253623929940E+04   -0.30197E-04   -0.48039E-04  4811   0.361E-02
  20 F= -.25362393E+04 E0= -.25361974E+04  d E =-.500539E-02  mag=   253.0000
       N       E                     dE             d eps       ncg     rms          rms(c)
DAV:   1    -0.253610496583E+04    0.13430E+00   -0.26013E+01  8000   0.521E+00    0.287E+00
RMM:   2    -0.253618520545E+04   -0.80240E-01   -0.12559E+00  7541   0.204E+00    0.229E+00
RMM:   3    -0.253623346361E+04   -0.48258E-01   -0.43916E-01  8792   0.658E-01    0.921E-01
RMM:   4    -0.253623233100E+04    0.11326E-02   -0.53130E-02  9101   0.250E-01    0.891E-01
RMM:   5    -0.253623170803E+04    0.62297E-03   -0.15161E-02  9721   0.981E-02    0.624E-01
RMM:   6    -0.253623080066E+04    0.90737E-03   -0.83286E-03  8745   0.934E-02    0.399E-01
RMM:   7    -0.253623105429E+04   -0.25364E-03   -0.46184E-03  8894   0.629E-02    0.232E-01
RMM:   8    -0.253623107044E+04   -0.16148E-04   -0.82366E-04  5893   0.316E-02
  21 F= -.25362311E+04 E0= -.25361953E+04  d E =0.322357E-02  mag=   253.0000
       N       E                     dE             d eps       ncg     rms          rms(c)
DAV:   1    -0.253619964363E+04    0.31411E-01   -0.89318E+00  8080   0.305E+00    0.172E+00
RMM:   2    -0.253622622638E+04   -0.26583E-01   -0.42160E-01  7508   0.120E+00    0.144E+00
RMM:   3    -0.253624182218E+04   -0.15596E-01   -0.14313E-01  8744   0.384E-01    0.564E-01
RMM:   4    -0.253624113553E+04    0.68665E-03   -0.16855E-02  8871   0.147E-01    0.531E-01
RMM:   5    -0.253624082398E+04    0.31155E-03   -0.47208E-03  8664   0.594E-02    0.382E-01
RMM:   6    -0.253624031849E+04    0.50549E-03   -0.25520E-03  7608   0.572E-02    0.241E-01
RMM:   7    -0.253624028050E+04    0.37983E-04   -0.14062E-03  7117   0.445E-02    0.145E-01
RMM:   8    -0.253624028339E+04   -0.28897E-05   -0.26189E-04  3926   0.248E-02
  22 F= -.25362403E+04 E0= -.25362012E+04  d E =-.598938E-02  mag=   253.0000
       N       E                     dE             d eps       ncg     rms          rms(c)
DAV:   1    -0.253624890515E+04   -0.86246E-02   -0.15376E+00  7440   0.135E+00    0.120E+00
RMM:   2    -0.253624542101E+04    0.34841E-02   -0.12209E-01  7524   0.650E-01    0.114E+00
RMM:   3    -0.253624845629E+04   -0.30353E-02   -0.37726E-02  8554   0.198E-01    0.468E-01
RMM:   4    -0.253624789822E+04    0.55807E-03   -0.52746E-03  8114   0.930E-02    0.345E-01
RMM:   5    -0.253624765323E+04    0.24498E-03   -0.13769E-03  6888   0.473E-02    0.277E-01
RMM:   6    -0.253624755288E+04    0.10036E-03   -0.12354E-03  6143   0.457E-02    0.184E-01
RMM:   7    -0.253624751820E+04    0.34682E-04   -0.40718E-04  4476   0.336E-02
  23 F= -.25362475E+04 E0= -.25362081E+04  d E =-.723480E-02  mag=   253.0000
       N       E                     dE             d eps       ncg     rms          rms(c)
DAV:   1    -0.253624833266E+04   -0.77978E-03   -0.30569E-01  7520   0.606E-01    0.534E-01
RMM:   2    -0.253624770398E+04    0.62868E-03   -0.24980E-02  7532   0.292E-01    0.503E-01
RMM:   3    -0.253624838356E+04   -0.67958E-03   -0.81490E-03  8426   0.899E-02    0.200E-01
RMM:   4    -0.253624827036E+04    0.11320E-03   -0.98713E-04  6061   0.445E-02    0.160E-01
RMM:   5    -0.253624822884E+04    0.41525E-04   -0.25452E-04  3949   0.276E-02
  24 F= -.25362482E+04 E0= -.25362086E+04  d E =-.794544E-02  mag=   253.0000
       N       E                     dE             d eps       ncg     rms          rms(c)
DAV:   1    -0.253624790217E+04    0.36819E-03   -0.12709E+00  8000   0.108E+00    0.566E-01
RMM:   2    -0.253625093547E+04   -0.30333E-02   -0.58801E-02  7640   0.432E-01    0.491E-01
RMM:   3    -0.253625255074E+04   -0.16153E-02   -0.17244E-02  8770   0.134E-01    0.192E-01
RMM:   4    -0.253625246526E+04    0.85474E-04   -0.19811E-03  7400   0.523E-02    0.172E-01
RMM:   5    -0.253625239945E+04    0.65811E-04   -0.46355E-04  4703   0.274E-02
  25 F= -.25362524E+04 E0= -.25362127E+04  d E =-.417061E-02  mag=   253.0000
       N       E                     dE             d eps       ncg     rms          rms(c)
DAV:   1    -0.253621212937E+04    0.40336E-01   -0.11379E+01  7520   0.323E+00    0.164E+00
RMM:   2    -0.253623944681E+04   -0.27317E-01   -0.52834E-01  7659   0.128E+00    0.142E+00
RMM:   3    -0.253625380496E+04   -0.14358E-01   -0.15019E-01  8794   0.396E-01    0.607E-01
RMM:   4    -0.253625292842E+04    0.87654E-03   -0.17402E-02  9125   0.150E-01    0.564E-01
RMM:   5    -0.253625257156E+04    0.35686E-03   -0.55557E-03  8866   0.602E-02    0.389E-01
RMM:   6    -0.253625238680E+04    0.18475E-03   -0.39254E-03  7888   0.711E-02    0.282E-01
RMM:   7    -0.253625250749E+04   -0.12069E-03   -0.15530E-03  7384   0.408E-02    0.136E-01
RMM:   8    -0.253625248935E+04    0.18140E-04   -0.33132E-04  4352   0.276E-02
  26 F= -.25362525E+04 E0= -.25362127E+04  d E =-.426052E-02  mag=   253.0000
       N       E                     dE             d eps       ncg     rms          rms(c)
DAV:   1    -0.253624949389E+04    0.30136E-02   -0.16366E+00  8000   0.122E+00    0.622E-01
RMM:   2    -0.253625329357E+04   -0.37997E-02   -0.74397E-02  7635   0.488E-01    0.552E-01
RMM:   3    -0.253625515140E+04   -0.18578E-02   -0.19769E-02  8670   0.150E-01    0.241E-01
RMM:   4    -0.253625494805E+04    0.20334E-03   -0.20036E-03  7468   0.564E-02    0.215E-01
RMM:   5    -0.253625483815E+04    0.10991E-03   -0.39357E-04  4422   0.295E-02    0.162E-01
RMM:   6    -0.253625474691E+04    0.91238E-04   -0.54938E-04  5119   0.314E-02
  27 F= -.25362547E+04 E0= -.25362150E+04  d E =-.651807E-02  mag=   253.0000
       N       E                     dE             d eps       ncg     rms          rms(c)
DAV:   1    -0.253625958419E+04   -0.47460E-02   -0.21090E+00  7600   0.151E+00    0.113E+00
RMM:   2    -0.253625785530E+04    0.17289E-02   -0.12604E-01  7543   0.658E-01    0.105E+00
RMM:   3    -0.253626056047E+04   -0.27052E-02   -0.35846E-02  8464   0.204E-01    0.437E-01
RMM:   4    -0.253625996950E+04    0.59097E-03   -0.49689E-03  8139   0.925E-02    0.329E-01
RMM:   5    -0.253625972622E+04    0.24328E-03   -0.14093E-03  6934   0.485E-02    0.253E-01
RMM:   6    -0.253625965416E+04    0.72064E-04   -0.93531E-04  5732   0.411E-02
  28 F= -.25362597E+04 E0= -.25362201E+04  d E =-.490725E-02  mag=   253.0000
       N       E                     dE             d eps       ncg     rms          rms(c)
DAV:   1    -0.253625954773E+04    0.17850E-03   -0.10565E-01  7920   0.348E-01    0.271E-01
RMM:   2    -0.253625947448E+04    0.73251E-04   -0.67600E-03  7440   0.149E-01    0.277E-01
RMM:   3    -0.253625962757E+04   -0.15309E-03   -0.19258E-03  6735   0.471E-02    0.113E-01
RMM:   4    -0.253625960490E+04    0.22672E-04   -0.25167E-04  3986   0.307E-02
  29 F= -.25362596E+04 E0= -.25362201E+04  d E =-.485799E-02  mag=   253.0000
       N       E                     dE             d eps       ncg     rms          rms(c)
DAV:   1    -0.253627912327E+04   -0.19496E-01   -0.14206E+00  8400   0.137E+00    0.119E+00
RMM:   2    -0.253626337638E+04    0.15747E-01   -0.96599E-02  8225   0.446E-01    0.651E-01
RMM:   3    -0.253626308461E+04    0.29177E-03   -0.31091E-02  8279   0.181E-01    0.364E-01
RMM:   4    -0.253626268518E+04    0.39943E-03   -0.41604E-03  7612   0.104E-01    0.202E-01
RMM:   5    -0.253626254182E+04    0.14336E-03   -0.12824E-03  6317   0.500E-02    0.168E-01
RMM:   6    -0.253626258880E+04   -0.46981E-04   -0.42937E-04  4461   0.287E-02
  30 F= -.25362626E+04 E0= -.25362234E+04  d E =-.298390E-02  mag=   253.0000
       N       E                     dE             d eps       ncg     rms          rms(c)
DAV:   1    -0.253626260659E+04   -0.64768E-04   -0.80676E-03  9600   0.110E-01    0.114E-01
RMM:   2    -0.253626250416E+04    0.10243E-03   -0.46629E-04  4740   0.377E-02    0.904E-02
RMM:   3    -0.253626251445E+04   -0.10292E-04   -0.23480E-04  3470   0.260E-02
  31 F= -.25362625E+04 E0= -.25362234E+04  d E =-.290955E-02  mag=   253.0000
       N       E                     dE             d eps       ncg     rms          rms(c)
DAV:   1    -0.253625957935E+04    0.29248E-02   -0.15562E+00  6960   0.110E+00    0.290E-01
RMM:   2    -0.253626491859E+04   -0.53392E-02   -0.56733E-02  7848   0.386E-01    0.196E-01
RMM:   3    -0.253626630805E+04   -0.13895E-02   -0.13365E-02  8486   0.108E-01    0.974E-02
RMM:   4    -0.253626629683E+04    0.11218E-04   -0.16682E-03  6293   0.420E-02    0.837E-02
RMM:   5    -0.253626628395E+04    0.12883E-04   -0.52523E-04  4786   0.218E-02
  32 F= -.25362663E+04 E0= -.25362273E+04  d E =-.376950E-02  mag=   253.0000
       N       E                     dE             d eps       ncg     rms          rms(c)
DAV:   1    -0.253621733284E+04    0.48964E-01   -0.13960E+01  6560   0.330E+00    0.880E-01
RMM:   2    -0.253626360262E+04   -0.46270E-01   -0.49937E-01  7785   0.116E+00    0.595E-01
RMM:   3    -0.253627685811E+04   -0.13255E-01   -0.12757E-01  8800   0.333E-01    0.280E-01
RMM:   4    -0.253627681904E+04    0.39064E-04   -0.16370E-02  8591   0.109E-01    0.247E-01
RMM:   5    -0.253627670577E+04    0.11328E-03   -0.54694E-03  7593   0.505E-02    0.173E-01
RMM:   6    -0.253627654243E+04    0.16333E-03   -0.36071E-03  8085   0.528E-02    0.105E-01
RMM:   7    -0.253627661268E+04   -0.70245E-04   -0.90667E-04  5567   0.341E-02
  33 F= -.25362766E+04 E0= -.25362384E+04  d E =-.140982E-01  mag=   253.0000
       N       E                     dE             d eps       ncg     rms          rms(c)
DAV:   1    -0.253605442872E+04    0.22211E+00   -0.56000E+01  6560   0.661E+00    0.179E+00
RMM:   2    -0.253624139136E+04   -0.18696E+00   -0.20228E+00  7801   0.232E+00    0.123E+00
RMM:   3    -0.253629417075E+04   -0.52779E-01   -0.50571E-01  8854   0.664E-01    0.552E-01
RMM:   4    -0.253629359886E+04    0.57190E-03   -0.62837E-02  9226   0.215E-01    0.489E-01
RMM:   5    -0.253629336704E+04    0.23181E-03   -0.21649E-02  9205   0.861E-02    0.344E-01
RMM:   6    -0.253629234814E+04    0.10189E-02   -0.11987E-02  8797   0.931E-02    0.215E-01
RMM:   7    -0.253629265437E+04   -0.30623E-03   -0.45158E-03  8672   0.494E-02    0.122E-01
RMM:   8    -0.253629273300E+04   -0.78631E-04   -0.11475E-03  5534   0.334E-02    0.928E-02
RMM:   9    -0.253629277067E+04   -0.37671E-04   -0.61162E-04  4766   0.258E-02
  34 F= -.25362928E+04 E0= -.25362559E+04  d E =-.302562E-01  mag=   253.0000
       N       E                     dE             d eps       ncg     rms          rms(c)
DAV:   1    -0.253535696452E+04    0.93577E+00   -0.22428E+02  6560   0.132E+01    0.359E+00
RMM:   2    -0.253610181952E+04   -0.74485E+00   -0.81202E+00  7802   0.467E+00    0.259E+00
RMM:   3    -0.253631278830E+04   -0.21097E+00   -0.20261E+00  8782   0.133E+00    0.111E+00
RMM:   4    -0.253630847892E+04    0.43094E-02   -0.24556E-01  9155   0.441E-01    0.951E-01
RMM:   5    -0.253630734506E+04    0.11339E-02   -0.88170E-02  9800   0.173E-01    0.657E-01
RMM:   6    -0.253630283986E+04    0.45052E-02   -0.42462E-02  8929   0.175E-01    0.422E-01
RMM:   7    -0.253630396232E+04   -0.11225E-02   -0.19342E-02  9553   0.932E-02    0.244E-01
RMM:   8    -0.253630422211E+04   -0.25979E-03   -0.43211E-03  7526   0.577E-02    0.179E-01
RMM:   9    -0.253630434125E+04   -0.11914E-03   -0.23697E-03  6217   0.376E-02    0.110E-01
RMM:  10    -0.253630441484E+04   -0.73590E-04   -0.13694E-03  5816   0.343E-02    0.775E-02
RMM:  11    -0.253630451868E+04   -0.10384E-03   -0.91997E-04  5167   0.341E-02    0.598E-02
RMM:  12    -0.253630457223E+04   -0.53549E-04   -0.50558E-04  4605   0.289E-02
  35 F= -.25363046E+04 E0= -.25362704E+04  d E =-.420578E-01  mag=   253.0000
       N       E                     dE             d eps       ncg     rms          rms(c)
DAV:   1    -0.253611064086E+04    0.19388E+00   -0.44750E+01  6640   0.592E+00    0.164E+00
RMM:   2    -0.253626170685E+04   -0.15107E+00   -0.16112E+00  7740   0.209E+00    0.106E+00
RMM:   3    -0.253630466458E+04   -0.42958E-01   -0.40838E-01  8759   0.614E-01    0.514E-01
RMM:   4    -0.253630457679E+04    0.87794E-04   -0.49457E-02  9178   0.193E-01    0.469E-01
RMM:   5    -0.253630384536E+04    0.73143E-03   -0.15572E-02  8999   0.778E-02    0.328E-01
RMM:   6    -0.253630285344E+04    0.99191E-03   -0.85322E-03  8500   0.815E-02    0.192E-01
RMM:   7    -0.253630299427E+04   -0.14083E-03   -0.28006E-03  8029   0.430E-02    0.115E-01
RMM:   8    -0.253630298996E+04    0.43155E-05   -0.59721E-04  5016   0.278E-02
  36 F= -.25363030E+04 E0= -.25362677E+04  d E =-.404755E-01  mag=   253.0000
       N       E                     dE             d eps       ncg     rms          rms(c)
DAV:   1    -0.253627683753E+04    0.26157E-01   -0.66400E+00  6480   0.228E+00    0.607E-01
RMM:   2    -0.253629867806E+04   -0.21841E-01   -0.23507E-01  7761   0.802E-01    0.409E-01
RMM:   3    -0.253630460384E+04   -0.59258E-02   -0.56903E-02  8607   0.230E-01    0.192E-01
RMM:   4    -0.253630455280E+04    0.51032E-04   -0.67105E-03  7647   0.794E-02    0.172E-01
RMM:   5    -0.253630444795E+04    0.10485E-03   -0.20513E-03  6610   0.369E-02    0.124E-01
RMM:   6    -0.253630428026E+04    0.16769E-03   -0.12443E-03  6456   0.370E-02    0.698E-02
RMM:   7    -0.253630430140E+04   -0.21144E-04   -0.38485E-04  4411   0.322E-02
  37 F= -.25363043E+04 E0= -.25362694E+04  d E =-.417870E-01  mag=   253.0000
       N       E                     dE             d eps       ncg     rms          rms(c)
DAV:   1    -0.253633456585E+04   -0.30286E-01   -0.66125E-01  8080   0.974E-01    0.981E-01
RMM:   2    -0.253632745234E+04    0.71135E-02   -0.56872E-02  7731   0.420E-01    0.742E-01
RMM:   3    -0.253632853439E+04   -0.10820E-02   -0.20619E-02  8414   0.142E-01    0.298E-01
RMM:   4    -0.253632797674E+04    0.55764E-03   -0.28809E-03  7376   0.835E-02    0.209E-01
RMM:   5    -0.253632782671E+04    0.15003E-03   -0.10944E-03  6161   0.434E-02    0.114E-01
RMM:   6    -0.253632782377E+04    0.29466E-05   -0.32496E-04  4131   0.324E-02
  38 F= -.25363278E+04 E0= -.25362927E+04  d E =-.235224E-01  mag=   253.0000
       N       E                     dE             d eps       ncg     rms          rms(c)
DAV:   1    -0.253642120615E+04   -0.93379E-01   -0.59264E+00  7600   0.291E+00    0.283E+00
RMM:   2    -0.253635756264E+04    0.63644E-01   -0.51067E-01  7807   0.126E+00    0.173E+00
RMM:   3    -0.253636588881E+04   -0.83262E-02   -0.20269E-01  8383   0.454E-01    0.780E-01
RMM:   4    -0.253636276797E+04    0.31208E-02   -0.27153E-02  7912   0.242E-01    0.525E-01
RMM:   5    -0.253636191780E+04    0.85017E-03   -0.87226E-03  8393   0.100E-01    0.336E-01
RMM:   6    -0.253636192714E+04   -0.93373E-05   -0.27139E-03  7878   0.571E-02    0.201E-01
RMM:   7    -0.253636189793E+04    0.29202E-04   -0.66247E-04  5001   0.355E-02
  39 F= -.25363619E+04 E0= -.25363260E+04  d E =-.575965E-01  mag=   253.0000
       N       E                     dE             d eps       ncg     rms          rms(c)
DAV:   1    -0.253636501555E+04   -0.30884E-02   -0.25052E-01  8400   0.487E-01    0.258E-01
RMM:   2    -0.253636578238E+04   -0.76683E-03   -0.12447E-02  7684   0.200E-01    0.235E-01
RMM:   3    -0.253636618411E+04   -0.40173E-03   -0.40965E-03  8383   0.638E-02    0.920E-02
RMM:   4    -0.253636615259E+04    0.31517E-04   -0.31845E-04  4282   0.287E-02
  40 F= -.25363662E+04 E0= -.25363301E+04  d E =-.425466E-02  mag=   253.0000
       N       E                     dE             d eps       ncg     rms          rms(c)
DAV:   1    -0.253636573327E+04    0.45084E-03   -0.22497E+00  7440   0.146E+00    0.730E-01
RMM:   2    -0.253637287095E+04   -0.71377E-02   -0.10831E-01  7654   0.591E-01    0.696E-01
RMM:   3    -0.253637642983E+04   -0.35589E-02   -0.34612E-02  8918   0.186E-01    0.302E-01
RMM:   4    -0.253637636505E+04    0.64778E-04   -0.46054E-03  8602   0.677E-02    0.243E-01
RMM:   5    -0.253637626230E+04    0.10275E-03   -0.94021E-04  5849   0.352E-02    0.204E-01
RMM:   6    -0.253637624849E+04    0.13808E-04   -0.81448E-04  5599   0.334E-02
  41 F= -.25363762E+04 E0= -.25363394E+04  d E =-.143506E-01  mag=   253.0000
       N       E                     dE             d eps       ncg     rms          rms(c)
DAV:   1    -0.253634146297E+04    0.34799E-01   -0.89204E+00  7440   0.291E+00    0.153E+00
RMM:   2    -0.253636991056E+04   -0.28448E-01   -0.43806E-01  7644   0.119E+00    0.145E+00
RMM:   3    -0.253638452903E+04   -0.14618E-01   -0.14011E-01  8899   0.376E-01    0.581E-01
RMM:   4    -0.253638432801E+04    0.20102E-03   -0.18420E-02  9254   0.138E-01    0.466E-01
RMM:   5    -0.253638407813E+04    0.24988E-03   -0.43157E-03  8361   0.569E-02    0.392E-01
RMM:   6    -0.253638392156E+04    0.15657E-03   -0.27182E-03  7924   0.535E-02    0.258E-01
RMM:   7    -0.253638396596E+04   -0.44393E-04   -0.10510E-03  6283   0.431E-02    0.142E-01
RMM:   8    -0.253638400955E+04   -0.43591E-04   -0.30515E-04  4120   0.291E-02
  42 F= -.25363840E+04 E0= -.25363456E+04  d E =-.221116E-01  mag=   253.0000
       N       E                     dE             d eps       ncg     rms          rms(c)
DAV:   1    -0.253638621316E+04   -0.22472E-02   -0.66914E-01  8080   0.759E-01    0.279E-01
RMM:   2    -0.253638862386E+04   -0.24107E-02   -0.28877E-02  7899   0.285E-01    0.209E-01
RMM:   3    -0.253638942926E+04   -0.80540E-03   -0.76527E-03  8824   0.839E-02    0.102E-01
RMM:   4    -0.253638939704E+04    0.32218E-04   -0.79837E-04  5690   0.344E-02
  43 F= -.25363894E+04 E0= -.25363506E+04  d E =-.538750E-02  mag=   253.0000
       N       E                     dE             d eps       ncg     rms          rms(c)
DAV:   1    -0.253637626089E+04    0.13168E-01   -0.60505E+00  7280   0.228E+00    0.804E-01
RMM:   2    -0.253639753034E+04   -0.21269E-01   -0.24869E-01  7807   0.846E-01    0.618E-01
RMM:   3    -0.253640433154E+04   -0.68012E-02   -0.64901E-02  8944   0.250E-01    0.310E-01
RMM:   4    -0.253640410697E+04    0.22458E-03   -0.80033E-03  8761   0.902E-02    0.273E-01
RMM:   5    -0.253640392338E+04    0.18359E-03   -0.26767E-03  7585   0.440E-02    0.200E-01
RMM:   6    -0.253640382833E+04    0.95045E-04   -0.20303E-03  7559   0.458E-02    0.110E-01
RMM:   7    -0.253640385402E+04   -0.25689E-04   -0.51005E-04  4911   0.317E-02
  44 F= -.25364039E+04 E0= -.25363641E+04  d E =-.198445E-01  mag=   253.0000
       N       E                     dE             d eps       ncg     rms          rms(c)
DAV:   1    -0.253631256067E+04    0.91268E-01   -0.24164E+01  7440   0.456E+00    0.167E+00
RMM:   2    -0.253639939409E+04   -0.86833E-01   -0.10018E+00  7808   0.170E+00    0.128E+00
RMM:   3    -0.253642713130E+04   -0.27737E-01   -0.25907E-01  8928   0.505E-01    0.592E-01
RMM:   4    -0.253642648170E+04    0.64960E-03   -0.30847E-02  9283   0.177E-01    0.527E-01
RMM:   5    -0.253642599239E+04    0.48931E-03   -0.10197E-02  9417   0.724E-02    0.392E-01
RMM:   6    -0.253642545035E+04    0.54204E-03   -0.60944E-03  8672   0.775E-02    0.229E-01
RMM:   7    -0.253642563269E+04   -0.18234E-03   -0.25811E-03  8306   0.429E-02    0.130E-01
RMM:   8    -0.253642557050E+04    0.62194E-04   -0.38881E-04  4542   0.275E-02
  45 F= -.25364256E+04 E0= -.25363838E+04  d E =-.415610E-01  mag=   253.0000
       N       E                     dE             d eps       ncg     rms          rms(c)
DAV:   1    -0.253598758067E+04    0.43805E+00   -0.96752E+01  7440   0.911E+00    0.338E+00
RMM:   2    -0.253633569299E+04   -0.34811E+00   -0.39826E+00  7764   0.340E+00    0.265E+00
RMM:   3    -0.253644759089E+04   -0.11190E+00   -0.10451E+00  8896   0.102E+00    0.123E+00
RMM:   4    -0.253644519114E+04    0.23998E-02   -0.12421E-01  9412   0.352E-01    0.109E+00
RMM:   5    -0.253644283716E+04    0.23540E-02   -0.41196E-02  9834   0.144E-01    0.814E-01
RMM:   6    -0.253644091129E+04    0.19259E-02   -0.23434E-02  8845   0.143E-01    0.461E-01
RMM:   7    -0.253644173640E+04   -0.82511E-03   -0.10293E-02  9687   0.790E-02    0.260E-01
RMM:   8    -0.253644154005E+04    0.19634E-03   -0.18543E-03  7187   0.394E-02    0.181E-01
RMM:   9    -0.253644145074E+04    0.89318E-04   -0.11333E-03  6038   0.357E-02    0.147E-01
RMM:  10    -0.253644145025E+04    0.48842E-06   -0.11619E-03  5951   0.338E-02    0.731E-02
RMM:  11    -0.253644147543E+04   -0.25184E-04   -0.35526E-04  4251   0.298E-02
  46 F= -.25364415E+04 E0= -.25363964E+04  d E =-.574659E-01  mag=   253.0000
       N       E                     dE             d eps       ncg     rms          rms(c)
DAV:   1    -0.253638328273E+04    0.58168E-01   -0.12506E+01  7520   0.328E+00    0.117E+00
RMM:   2    -0.253642741008E+04   -0.44127E-01   -0.51784E-01  7903   0.121E+00    0.873E-01
RMM:   3    -0.253644064885E+04   -0.13239E-01   -0.12395E-01  8857   0.351E-01    0.417E-01
RMM:   4    -0.253644029905E+04    0.34980E-03   -0.13980E-02  8915   0.125E-01    0.368E-01
RMM:   5    -0.253643997829E+04    0.32076E-03   -0.43477E-03  8318   0.530E-02    0.270E-01
RMM:   6    -0.253643977128E+04    0.20701E-03   -0.31807E-03  7862   0.581E-02    0.152E-01
RMM:   7    -0.253643987232E+04   -0.10104E-03   -0.86620E-04  5823   0.353E-02    0.107E-01
RMM:   8    -0.253643986808E+04    0.42347E-05   -0.17822E-04  3837   0.286E-02
  47 F= -.25364399E+04 E0= -.25363957E+04  d E =-.558585E-01  mag=   253.0000
       N       E                     dE             d eps       ncg     rms          rms(c)
DAV:   1    -0.253644286984E+04   -0.29975E-02   -0.74849E-01  7360   0.777E-01    0.158E-01
RMM:   2    -0.253644518019E+04   -0.23103E-02   -0.23817E-02  7442   0.258E-01    0.994E-02
RMM:   3    -0.253644574149E+04   -0.56131E-03   -0.55199E-03  7569   0.765E-02    0.743E-02
RMM:   4    -0.253644574950E+04   -0.80108E-05   -0.64311E-04  4787   0.343E-02
  48 F= -.25364457E+04 E0= -.25364015E+04  d E =-.588142E-02  mag=   253.0000
       N       E                     dE             d eps       ncg     rms          rms(c)
DAV:   1    -0.253643636069E+04    0.93808E-02   -0.67153E+00  7120   0.232E+00    0.478E-01
RMM:   2    -0.253645771240E+04   -0.21352E-01   -0.22074E-01  7635   0.772E-01    0.311E-01
RMM:   3    -0.253646378148E+04   -0.60691E-02   -0.59158E-02  8579   0.224E-01    0.206E-01
RMM:   4    -0.253646379512E+04   -0.13642E-04   -0.77667E-03  7977   0.691E-02    0.187E-01
RMM:   5    -0.253646375042E+04    0.44693E-04   -0.23668E-03  6498   0.385E-02    0.143E-01
RMM:   6    -0.253646361740E+04    0.13302E-03   -0.22280E-03  7407   0.467E-02    0.102E-01
RMM:   7    -0.253646367943E+04   -0.62030E-04   -0.67238E-04  5323   0.358E-02
  49 F= -.25364637E+04 E0= -.25364190E+04  d E =-.238114E-01  mag=   253.0000
       N       E                     dE             d eps       ncg     rms          rms(c)
DAV:   1    -0.253639006279E+04    0.73555E-01   -0.26841E+01  6960   0.464E+00    0.987E-01
RMM:   2    -0.253647712908E+04   -0.87066E-01   -0.89472E-01  7636   0.155E+00    0.602E-01
RMM:   3    -0.253650154805E+04   -0.24419E-01   -0.23475E-01  8673   0.451E-01    0.396E-01
RMM:   4    -0.253650178934E+04   -0.24129E-03   -0.30139E-02  9504   0.135E-01    0.349E-01
RMM:   5    -0.253650166337E+04    0.12597E-03   -0.93562E-03  7928   0.597E-02    0.274E-01
RMM:   6    -0.253650118359E+04    0.47978E-03   -0.75769E-03  8632   0.816E-02    0.207E-01
RMM:   7    -0.253650145885E+04   -0.27525E-03   -0.29703E-03  7921   0.501E-02    0.152E-01
RMM:   8    -0.253650138627E+04    0.72577E-04   -0.55336E-04  4792   0.292E-02
  50 F= -.25365014E+04 E0= -.25364561E+04  d E =-.615182E-01  mag=   253.0000
       N       E                     dE             d eps       ncg     rms          rms(c)
DAV:   1    -0.253613599880E+04    0.36546E+00   -0.10745E+02  6880   0.928E+00    0.198E+00
RMM:   2    -0.253648835081E+04   -0.35235E+00   -0.36228E+00  7691   0.310E+00    0.121E+00
RMM:   3    -0.253658518011E+04   -0.96829E-01   -0.93054E-01  8695   0.895E-01    0.808E-01
RMM:   4    -0.253658578927E+04   -0.60916E-03   -0.11760E-01  9636   0.261E-01    0.703E-01
RMM:   5    -0.253658482866E+04    0.96061E-03   -0.37098E-02  9870   0.115E-01    0.547E-01
RMM:   6    -0.253658280890E+04    0.20198E-02   -0.27706E-02  8797   0.151E-01    0.436E-01
RMM:   7    -0.253658385824E+04   -0.10493E-02   -0.11796E-02  9304   0.849E-02    0.280E-01
RMM:   8    -0.253658356390E+04    0.29433E-03   -0.23671E-03  6769   0.446E-02    0.209E-01
RMM:   9    -0.253658351330E+04    0.50601E-04   -0.15289E-03  6485   0.368E-02    0.114E-01
RMM:  10    -0.253658357439E+04   -0.61091E-04   -0.10872E-03  5883   0.353E-02    0.838E-02
RMM:  11    -0.253658359417E+04   -0.19774E-04   -0.31903E-04  4274   0.272E-02
  51 F= -.25365836E+04 E0= -.25365383E+04  d E =-.143726E+00  mag=   253.0000
       N       E                     dE             d eps       ncg     rms          rms(c)
DAV:   1    -0.253497405370E+04    0.16095E+01   -0.42930E+02  6960   0.186E+01    0.404E+00
RMM:   2    -0.253638352148E+04   -0.14095E+01   -0.14527E+01  7627   0.622E+00    0.253E+00
RMM:   3    -0.253678111617E+04   -0.39759E+00   -0.38288E+00  8722   0.183E+00    0.168E+00
RMM:   4    -0.253678136986E+04   -0.25369E-03   -0.47375E-01  9549   0.533E-01    0.143E+00
RMM:   5    -0.253677526203E+04    0.61078E-02   -0.15331E-01  9846   0.232E-01    0.107E+00
RMM:   6    -0.253676666467E+04    0.85974E-02   -0.10597E-01  8850   0.286E-01    0.807E-01
RMM:   7    -0.253677031458E+04   -0.36499E-02   -0.43303E-02  9500   0.158E-01    0.534E-01
RMM:   8    -0.253676929881E+04    0.10158E-02   -0.93697E-03  8805   0.830E-02    0.381E-01
RMM:   9    -0.253676921090E+04    0.87910E-04   -0.61551E-03  8729   0.638E-02    0.215E-01
RMM:  10    -0.253676938312E+04   -0.17222E-03   -0.29460E-03  7978   0.470E-02    0.164E-01
RMM:  11    -0.253676940782E+04   -0.24697E-04   -0.91298E-04  5093   0.322E-02
  52 F= -.25367694E+04 E0= -.25367285E+04  d E =-.329540E+00  mag=   253.0000
       N       E                     dE             d eps       ncg     rms          rms(c)
DAV:   1    -0.252952583404E+04    0.72435E+01   -0.17097E+03  6880   0.371E+01    0.926E+00
RMM:   2    -0.253562015919E+04   -0.60943E+01   -0.63497E+01  7721   0.128E+01    0.631E+00
RMM:   3    -0.253727163909E+04   -0.16515E+01   -0.15926E+01  8783   0.374E+00    0.392E+00
RMM:   4    -0.253723095678E+04    0.40682E-01   -0.18902E+00  9417   0.110E+00    0.322E+00
RMM:   5    -0.253718866770E+04    0.42289E-01   -0.67890E-01  9724   0.483E-01    0.229E+00
RMM:   6    -0.253714739015E+04    0.41278E-01   -0.40694E-01  8857   0.556E-01    0.151E+00
RMM:   7    -0.253715813681E+04   -0.10747E-01   -0.16522E-01  9565   0.302E-01    0.104E+00
RMM:   8    -0.253715480304E+04    0.33338E-02   -0.35235E-02  9245   0.166E-01    0.637E-01
RMM:   9    -0.253715477084E+04    0.32195E-04   -0.26006E-02  9521   0.126E-01    0.459E-01
RMM:  10    -0.253715525730E+04   -0.48645E-03   -0.10310E-02  9837   0.688E-02    0.265E-01
RMM:  11    -0.253715524407E+04    0.13224E-04   -0.30394E-03  6552   0.416E-02    0.155E-01
RMM:  12    -0.253715527368E+04   -0.29607E-04   -0.17763E-03  6165   0.393E-02    0.106E-01
RMM:  13    -0.253715535996E+04   -0.86282E-04   -0.12839E-03  5567   0.358E-02    0.537E-02
RMM:  14    -0.253715542148E+04   -0.61519E-04   -0.66206E-04  4630   0.320E-02
  53 F= -.25371554E+04 E0= -.25371261E+04  d E =-.715553E+00  mag=   253.0000
       N       E                     dE             d eps       ncg     rms          rms(c)
DAV:   1    -0.250163450515E+04    0.35521E+02   -0.67416E+03  6720   0.741E+01    0.257E+01
RMM:   2    -0.253166719044E+04   -0.30033E+02   -0.32395E+02  7921   0.276E+01    0.205E+01
RMM:   3    -0.253875224014E+04   -0.70850E+01   -0.70573E+01  8976   0.795E+00    0.117E+01
RMM:   4    -0.253792209701E+04    0.83014E+00   -0.72336E+00  9181   0.252E+00    0.911E+00
RMM:   5    -0.253748803192E+04    0.43407E+00   -0.35209E+00  9290   0.132E+00    0.631E+00
RMM:   6    -0.253734113540E+04    0.14690E+00   -0.16293E+00  9496   0.107E+00    0.443E+00
RMM:   7    -0.253732825449E+04    0.12881E-01   -0.47153E-01  9822   0.519E-01    0.267E+00
RMM:   8    -0.253731813831E+04    0.10116E-01   -0.16257E-01  8951   0.374E-01    0.118E+00
RMM:   9    -0.253732456760E+04   -0.64293E-02   -0.81801E-02  9620   0.245E-01    0.110E+00
RMM:  10    -0.253732588449E+04   -0.13169E-02   -0.23913E-02 10095   0.121E-01    0.510E-01
RMM:  11    -0.253732574781E+04    0.13668E-03   -0.11022E-02  9959   0.788E-02    0.312E-01
RMM:  12    -0.253732525574E+04    0.49207E-03   -0.78833E-03  9320   0.724E-02    0.193E-01
RMM:  13    -0.253732551389E+04   -0.25815E-03   -0.37429E-03  8227   0.464E-02    0.108E-01
RMM:  14    -0.253732560476E+04   -0.90865E-04   -0.12871E-03  5391   0.353E-02    0.583E-02
RMM:  15    -0.253732568006E+04   -0.75303E-04   -0.10224E-03  4882   0.283E-02    0.527E-02
RMM:  16    -0.253732571936E+04   -0.39303E-04   -0.55493E-04  4782   0.265E-02
  54 F= -.25373257E+04 E0= -.25372980E+04  d E =-.885851E+00  mag=   253.0000
       N       E                     dE             d eps       ncg     rms          rms(c)
DAV:   1    -0.252872894882E+04    0.85967E+01   -0.18516E+03  6880   0.388E+01    0.117E+01
RMM:   2    -0.253551121096E+04   -0.67823E+01   -0.70958E+01  7633   0.141E+01    0.863E+00
RMM:   3    -0.253757649881E+04   -0.20653E+01   -0.19805E+01  8639   0.422E+00    0.396E+00
RMM:   4    -0.253748827370E+04    0.88225E-01   -0.22686E+00  9263   0.130E+00    0.293E+00
RMM:   5    -0.253741634203E+04    0.71932E-01   -0.90570E-01  9538   0.655E-01    0.231E+00
RMM:   6    -0.253739953534E+04    0.16807E-01   -0.36503E-01  9496   0.445E-01    0.140E+00
RMM:   7    -0.253740029103E+04   -0.75570E-03   -0.11231E-01  9773   0.233E-01    0.739E-01
RMM:   8    -0.253739985727E+04    0.43377E-03   -0.34860E-02  9813   0.164E-01    0.501E-01
RMM:   9    -0.253740127292E+04   -0.14157E-02   -0.18017E-02  9972   0.794E-02    0.266E-01
RMM:  10    -0.253740153485E+04   -0.26193E-03   -0.44174E-03  8068   0.645E-02    0.196E-01
RMM:  11    -0.253740179269E+04   -0.25784E-03   -0.30946E-03  6766   0.406E-02    0.119E-01
RMM:  12    -0.253740187757E+04   -0.84879E-04   -0.12418E-03  5539   0.406E-02    0.950E-02
RMM:  13    -0.253740196141E+04   -0.83840E-04   -0.10773E-03  5011   0.345E-02    0.415E-02
RMM:  14    -0.253740200999E+04   -0.48583E-04   -0.49386E-04  4781   0.320E-02
  55 F= -.25374020E+04 E0= -.25373768E+04  d E =-.962142E+00  mag=   253.0000
       N       E                     dE             d eps       ncg     rms          rms(c)
DAV:   1    -0.253546014445E+04    0.19418E+01   -0.46542E+02  7120   0.194E+01    0.424E+00
RMM:   2    -0.253702288740E+04   -0.15627E+01   -0.16144E+01  7676   0.662E+00    0.266E+00
RMM:   3    -0.253743555780E+04   -0.41267E+00   -0.39844E+00  8581   0.193E+00    0.172E+00
RMM:   4    -0.253744168180E+04   -0.61240E-02   -0.51771E-01  9312   0.593E-01    0.139E+00
RMM:   5    -0.253742884910E+04    0.12833E-01   -0.16772E-01  9555   0.266E-01    0.929E-01
RMM:   6    -0.253742186078E+04    0.69883E-02   -0.88997E-02  8946   0.258E-01    0.607E-01
RMM:   7    -0.253742492104E+04   -0.30603E-02   -0.32241E-02  9642   0.130E-01    0.380E-01
RMM:   8    -0.253742406021E+04    0.86083E-03   -0.64681E-03  8899   0.656E-02    0.241E-01
RMM:   9    -0.253742378942E+04    0.27080E-03   -0.46618E-03  8696   0.551E-02    0.183E-01
RMM:  10    -0.253742378568E+04    0.37405E-05   -0.17148E-03  7299   0.380E-02    0.894E-02
RMM:  11    -0.253742383334E+04   -0.47662E-04   -0.68234E-04  4956   0.309E-02
  56 F= -.25374238E+04 E0= -.25373981E+04  d E =-.983965E+00  mag=   253.0000
       N       E                     dE             d eps       ncg     rms          rms(c)
DAV:   1    -0.253715016759E+04    0.27362E+00   -0.66360E+01  7520   0.732E+00    0.164E+00
RMM:   2    -0.253736934516E+04   -0.21918E+00   -0.22588E+00  7644   0.250E+00    0.104E+00
RMM:   3    -0.253742986404E+04   -0.60519E-01   -0.58151E-01  8538   0.737E-01    0.606E-01
RMM:   4    -0.253743052382E+04   -0.65978E-03   -0.74037E-02  9353   0.217E-01    0.450E-01
RMM:   5    -0.253742830589E+04    0.22179E-02   -0.24143E-02  9326   0.108E-01    0.308E-01
RMM:   6    -0.253742785925E+04    0.44664E-03   -0.11690E-02  9016   0.883E-02    0.192E-01
RMM:   7    -0.253742811213E+04   -0.25289E-03   -0.32015E-03  7863   0.411E-02    0.104E-01
RMM:   8    -0.253742802280E+04    0.89330E-04   -0.67066E-04  5195   0.310E-02
  57 F= -.25374280E+04 E0= -.25374027E+04  d E =-.988155E+00  mag=   253.0000
       N       E                     dE             d eps       ncg     rms          rms(c)
DAV:   1    -0.253741131561E+04    0.16797E-01   -0.92582E+00  6960   0.270E+00    0.592E-01
RMM:   2    -0.253744183669E+04   -0.30521E-01   -0.31591E-01  7712   0.924E-01    0.451E-01
RMM:   3    -0.253744959361E+04   -0.77569E-02   -0.74828E-02  8521   0.263E-01    0.225E-01
RMM:   4    -0.253744953759E+04    0.56022E-04   -0.90519E-03  8087   0.787E-02    0.185E-01
RMM:   5    -0.253744916271E+04    0.37488E-03   -0.30784E-03  7324   0.459E-02    0.132E-01
RMM:   6    -0.253744911282E+04    0.49883E-04   -0.19684E-03  7328   0.398E-02    0.712E-02
RMM:   7    -0.253744912363E+04   -0.10804E-04   -0.28866E-04  4142   0.303E-02
  58 F= -.25374491E+04 E0= -.25374237E+04  d E =-.211008E-01  mag=   253.0000
       N       E                     dE             d eps       ncg     rms          rms(c)
DAV:   1    -0.253714847377E+04    0.30064E+00   -0.83495E+01  6640   0.812E+00    0.182E+00
RMM:   2    -0.253743340313E+04   -0.28493E+00   -0.29440E+00  7774   0.280E+00    0.132E+00
RMM:   3    -0.253750586988E+04   -0.72467E-01   -0.69904E-01  8688   0.787E-01    0.694E-01
RMM:   4    -0.253750611333E+04   -0.24345E-03   -0.90744E-02  9232   0.237E-01    0.583E-01
RMM:   5    -0.253750351295E+04    0.26004E-02   -0.36135E-02  9267   0.131E-01    0.406E-01
RMM:   6    -0.253750354617E+04   -0.33218E-04   -0.16690E-02  9194   0.101E-01    0.228E-01
RMM:   7    -0.253750387933E+04   -0.33316E-03   -0.43814E-03  8087   0.475E-02    0.141E-01
RMM:   8    -0.253750371416E+04    0.16517E-03   -0.13207E-03  6065   0.332E-02    0.855E-02
RMM:   9    -0.253750370315E+04    0.11012E-04   -0.71741E-04  5257   0.271E-02
  59 F= -.25375037E+04 E0= -.25374777E+04  d E =-.756803E-01  mag=   253.0000
       N       E                     dE             d eps       ncg     rms          rms(c)
DAV:   1    -0.253611415883E+04    0.13896E+01   -0.33387E+02  6560   0.162E+01    0.368E+00
RMM:   2    -0.253728320371E+04   -0.11690E+01   -0.12051E+01  7777   0.567E+00    0.263E+00
RMM:   3    -0.253757780247E+04   -0.29460E+00   -0.28351E+00  8694   0.159E+00    0.151E+00
RMM:   4    -0.253757886596E+04   -0.10635E-02   -0.36585E-01  9388   0.471E-01    0.131E+00
RMM:   5    -0.253756735144E+04    0.11515E-01   -0.14223E-01  9331   0.250E-01    0.878E-01
RMM:   6    -0.253756610912E+04    0.12423E-02   -0.71832E-02  9122   0.220E-01    0.493E-01
RMM:   7    -0.253756806165E+04   -0.19525E-02   -0.20482E-02  9846   0.997E-02    0.326E-01
RMM:   8    -0.253756715479E+04    0.90686E-03   -0.60201E-03  8921   0.574E-02    0.195E-01
RMM:   9    -0.253756701384E+04    0.14094E-03   -0.36979E-03  8512   0.485E-02    0.133E-01
RMM:  10    -0.253756703366E+04   -0.19812E-04   -0.12048E-03  6400   0.347E-02    0.643E-02
RMM:  11    -0.253756708474E+04   -0.51086E-04   -0.60277E-04  4671   0.284E-02
  60 F= -.25375671E+04 E0= -.25375393E+04  d E =-.139062E+00  mag=   253.0000
       N       E                     dE             d eps       ncg     rms          rms(c)
DAV:   1    -0.253762795218E+04   -0.60919E-01   -0.26650E+00  8400   0.156E+00    0.838E-01
RMM:   2    -0.253763619840E+04   -0.82462E-02   -0.12724E-01  7617   0.640E-01    0.741E-01
RMM:   3    -0.253764044723E+04   -0.42488E-02   -0.40417E-02  8889   0.200E-01    0.316E-01
RMM:   4    -0.253764023628E+04    0.21094E-03   -0.48826E-03  8450   0.711E-02    0.276E-01
RMM:   5    -0.253764006963E+04    0.16666E-03   -0.15009E-03  6895   0.384E-02    0.198E-01
RMM:   6    -0.253764002002E+04    0.49607E-04   -0.12494E-03  6634   0.391E-02    0.893E-02
RMM:   7    -0.253764002306E+04   -0.30430E-05   -0.38790E-04  4434   0.297E-02
  61 F= -.25376400E+04 E0= -.25376120E+04  d E =-.729383E-01  mag=   253.0000
       N       E                     dE             d eps       ncg     rms          rms(c)
DAV:   1    -0.253773028007E+04   -0.90260E-01   -0.23803E+01  7840   0.467E+00    0.252E+00
RMM:   2    -0.253780532240E+04   -0.75042E-01   -0.11312E+00  7568   0.193E+00    0.224E+00
RMM:   3    -0.253784347243E+04   -0.38150E-01   -0.35852E-01  8842   0.606E-01    0.949E-01
RMM:   4    -0.253784212534E+04    0.13471E-02   -0.42507E-02  9364   0.207E-01    0.842E-01
RMM:   5    -0.253784091368E+04    0.12117E-02   -0.12915E-02  9605   0.917E-02    0.602E-01
RMM:   6    -0.253784042108E+04    0.49260E-03   -0.83542E-03  8748   0.861E-02    0.253E-01
RMM:   7    -0.253784050191E+04   -0.80832E-04   -0.29098E-03  8289   0.521E-02    0.168E-01
RMM:   8    -0.253784036722E+04    0.13469E-03   -0.57385E-04  5157   0.356E-02    0.729E-02
RMM:   9    -0.253784032545E+04    0.41777E-04   -0.42820E-04  4646   0.267E-02
  62 F= -.25378403E+04 E0= -.25378113E+04  d E =-.273241E+00  mag=   253.0000
       N       E                     dE             d eps       ncg     rms          rms(c)
DAV:   1    -0.253771983122E+04    0.12054E+00   -0.95414E+01  7680   0.935E+00    0.510E+00
RMM:   2    -0.253802360301E+04   -0.30377E+00   -0.45008E+00  7546   0.387E+00    0.463E+00
RMM:   3    -0.253817370246E+04   -0.15010E+00   -0.14136E+00  8809   0.121E+00    0.196E+00
RMM:   4    -0.253816862056E+04    0.50819E-02   -0.16977E-01  9428   0.416E-01    0.173E+00
RMM:   5    -0.253816390016E+04    0.47204E-02   -0.51211E-02  9751   0.180E-01    0.127E+00
RMM:   6    -0.253816162094E+04    0.22792E-02   -0.32690E-02  8737   0.167E-01    0.547E-01
RMM:   7    -0.253816218482E+04   -0.56389E-03   -0.12905E-02  9359   0.107E-01    0.352E-01
RMM:   8    -0.253816171169E+04    0.47313E-03   -0.29295E-03  8047   0.562E-02    0.152E-01
RMM:   9    -0.253816158212E+04    0.12957E-03   -0.22881E-03  8083   0.444E-02    0.937E-02
RMM:  10    -0.253816157258E+04    0.95384E-05   -0.69640E-04  5410   0.295E-02
  63 F= -.25381616E+04 E0= -.25381300E+04  d E =-.594488E+00  mag=   253.0000
       N       E                     dE             d eps       ncg     rms          rms(c)
DAV:   1    -0.253670965803E+04    0.14519E+01   -0.38123E+02  7680   0.187E+01    0.106E+01
RMM:   2    -0.253795288676E+04   -0.12432E+01   -0.18025E+01  7506   0.780E+00    0.994E+00
RMM:   3    -0.253854803953E+04   -0.59515E+00   -0.56067E+00  8759   0.244E+00    0.416E+00
RMM:   4    -0.253853013875E+04    0.17901E-01   -0.69610E-01  9431   0.838E-01    0.362E+00
RMM:   5    -0.253851330040E+04    0.16838E-01   -0.20486E-01  9832   0.358E-01    0.281E+00
RMM:   6    -0.253850062691E+04    0.12673E-01   -0.12019E-01  8710   0.323E-01    0.131E+00
RMM:   7    -0.253850345960E+04   -0.28327E-02   -0.58662E-02  9354   0.229E-01    0.718E-01
RMM:   8    -0.253850238935E+04    0.10703E-02   -0.13553E-02  9821   0.102E-01    0.374E-01
RMM:   9    -0.253850147942E+04    0.90992E-03   -0.77370E-03  9464   0.774E-02    0.218E-01
RMM:  10    -0.253850148770E+04   -0.82807E-05   -0.39674E-03  8799   0.526E-02    0.212E-01
RMM:  11    -0.253850150347E+04   -0.15770E-04   -0.10436E-03  6116   0.352E-02    0.131E-01
RMM:  12    -0.253850151691E+04   -0.13443E-04   -0.50229E-04  4729   0.302E-02
  64 F= -.25385015E+04 E0= -.25384664E+04  d E =-.934432E+00  mag=   253.0000
       N       E                     dE             d eps       ncg     rms          rms(c)
DAV:   1    -0.253834817850E+04    0.15332E+00   -0.39654E+01  7920   0.602E+00    0.337E+00
RMM:   2    -0.253847143850E+04   -0.12326E+00   -0.18690E+00  7551   0.249E+00    0.303E+00
RMM:   3    -0.253853422177E+04   -0.62783E-01   -0.59179E-01  8827   0.781E-01    0.125E+00
RMM:   4    -0.253853183451E+04    0.23873E-02   -0.70147E-02  9365   0.268E-01    0.112E+00
RMM:   5    -0.253853048651E+04    0.13480E-02   -0.21834E-02  9874   0.113E-01    0.852E-01
RMM:   6    -0.253852902613E+04    0.14604E-02   -0.13421E-02  8746   0.110E-01    0.419E-01
RMM:   7    -0.253852930074E+04   -0.27461E-03   -0.66179E-03  9202   0.737E-02    0.221E-01
RMM:   8    -0.253852910793E+04    0.19281E-03   -0.11853E-03  6683   0.375E-02    0.118E-01
RMM:   9    -0.253852899559E+04    0.11234E-03   -0.77133E-04  5900   0.346E-02    0.712E-02
RMM:  10    -0.253852899913E+04   -0.35356E-05   -0.57065E-04  4921   0.313E-02
  65 F= -.25385290E+04 E0= -.25384937E+04  d E =-.961914E+00  mag=   253.0000
       N       E                     dE             d eps       ncg     rms          rms(c)
DAV:   1    -0.253849159032E+04    0.37405E-01   -0.61133E+01  8240   0.782E+00    0.383E+00
RMM:   2    -0.253870517253E+04   -0.21358E+00   -0.29399E+00  7706   0.308E+00    0.372E+00
RMM:   3    -0.253879712252E+04   -0.91950E-01   -0.87160E-01  8742   0.950E-01    0.144E+00
RMM:   4    -0.253879719393E+04   -0.71418E-04   -0.11107E-01  8940   0.351E-01    0.122E+00
RMM:   5    -0.253879672268E+04    0.47125E-03   -0.30608E-02  9867   0.139E-01    0.898E-01
RMM:   6    -0.253879437118E+04    0.23515E-02   -0.17428E-02  8455   0.141E-01    0.652E-01
RMM:   7    -0.253879521026E+04   -0.83908E-03   -0.12183E-02  9088   0.104E-01    0.243E-01
RMM:   8    -0.253879514346E+04    0.66801E-04   -0.19543E-03  7633   0.421E-02    0.204E-01
RMM:   9    -0.253879502576E+04    0.11771E-03   -0.87137E-04  5755   0.365E-02    0.142E-01
RMM:  10    -0.253879503099E+04   -0.52355E-05   -0.72082E-04  5076   0.318E-02
  66 F= -.25387950E+04 E0= -.25387610E+04  d E =-.266032E+00  mag=   253.0000
       N       E                     dE             d eps       ncg     rms          rms(c)
DAV:   1    -0.253657465474E+04    0.22204E+01   -0.54965E+02  7760   0.235E+01    0.105E+01
RMM:   2    -0.253851632343E+04   -0.19417E+01   -0.27095E+01  7913   0.918E+00    0.981E+00
RMM:   3    -0.253928902615E+04   -0.77270E+00   -0.73343E+00  8663   0.272E+00    0.374E+00
RMM:   4    -0.253927613081E+04    0.12895E-01   -0.93114E-01  8804   0.108E+00    0.302E+00
RMM:   5    -0.253926543677E+04    0.10694E-01   -0.27057E-01  9773   0.442E-01    0.225E+00
RMM:   6    -0.253924771700E+04    0.17720E-01   -0.14994E-01  8785   0.369E-01    0.167E+00
RMM:   7    -0.253925126464E+04   -0.35476E-02   -0.70235E-02  9555   0.238E-01    0.527E-01
RMM:   8    -0.253925159141E+04   -0.32678E-03   -0.16070E-02 10411   0.910E-02    0.393E-01
RMM:   9    -0.253925128269E+04    0.30873E-03   -0.71376E-03  9948   0.643E-02    0.267E-01
RMM:  10    -0.253925149475E+04   -0.21207E-03   -0.46417E-03  9388   0.555E-02    0.137E-01
RMM:  11    -0.253925155550E+04   -0.60743E-04   -0.10916E-03  6371   0.314E-02    0.811E-02
RMM:  12    -0.253925158025E+04   -0.24755E-04   -0.45250E-04  4637   0.290E-02
  67 F= -.25392516E+04 E0= -.25392243E+04  d E =-.722581E+00  mag=   253.0000
       N       E                     dE             d eps       ncg     rms          rms(c)
DAV:   1    -0.253912262635E+04    0.12893E+00   -0.28776E+01  8480   0.538E+00    0.257E+00
RMM:   2    -0.253922322129E+04   -0.10059E+00   -0.13889E+00  7683   0.215E+00    0.261E+00
RMM:   3    -0.253926664442E+04   -0.43423E-01   -0.41602E-01  8689   0.664E-01    0.974E-01
RMM:   4    -0.253926639659E+04    0.24783E-03   -0.54156E-02  9014   0.238E-01    0.675E-01
RMM:   5    -0.253926533326E+04    0.10633E-02   -0.14874E-02  9519   0.110E-01    0.638E-01
RMM:   6    -0.253926467519E+04    0.65806E-03   -0.78638E-03  9160   0.745E-02    0.407E-01
RMM:   7    -0.253926475294E+04   -0.77751E-04   -0.31000E-03  8173   0.556E-02    0.118E-01
RMM:   8    -0.253926477876E+04   -0.25814E-04   -0.68229E-04  5323   0.306E-02
  68 F= -.25392648E+04 E0= -.25392386E+04  d E =-.735780E+00  mag=   253.0000
       N       E                     dE             d eps       ncg     rms          rms(c)
DAV:   1    -0.253904041710E+04    0.22434E+00   -0.78932E+01  8160   0.854E+00    0.357E+00
RMM:   2    -0.253936530847E+04   -0.32489E+00   -0.34915E+00  7772   0.333E+00    0.299E+00
RMM:   3    -0.253947772401E+04   -0.11242E+00   -0.99159E-01  8768   0.101E+00    0.133E+00
RMM:   4    -0.253947559632E+04    0.21277E-02   -0.11685E-01  9132   0.359E-01    0.106E+00
RMM:   5    -0.253947192168E+04    0.36746E-02   -0.34873E-02  9457   0.164E-01    0.824E-01
RMM:   6    -0.253947053264E+04    0.13890E-02   -0.19336E-02  8961   0.130E-01    0.422E-01
RMM:   7    -0.253947123239E+04   -0.69976E-03   -0.73391E-03  9662   0.701E-02    0.182E-01
RMM:   8    -0.253947097667E+04    0.25572E-03   -0.14135E-03  6850   0.379E-02    0.137E-01
RMM:   9    -0.253947089616E+04    0.80509E-04   -0.74543E-04  5510   0.324E-02
  69 F= -.25394709E+04 E0= -.25394465E+04  d E =-.206117E+00  mag=   253.0000
       N       E                     dE             d eps       ncg     rms          rms(c)
DAV:   1    -0.253931932224E+04    0.15165E+00   -0.44562E+01  8240   0.641E+00    0.265E+00
RMM:   2    -0.253950459984E+04   -0.18528E+00   -0.19858E+00  7846   0.250E+00    0.222E+00
RMM:   3    -0.253956604680E+04   -0.61447E-01   -0.54134E-01  8787   0.743E-01    0.985E-01
RMM:   4    -0.253956451711E+04    0.15297E-02   -0.64797E-02  9148   0.266E-01    0.757E-01
RMM:   5    -0.253956203096E+04    0.24862E-02   -0.20365E-02  9330   0.127E-01    0.563E-01
RMM:   6    -0.253956160211E+04    0.42885E-03   -0.11045E-02  9039   0.970E-02    0.274E-01
RMM:   7    -0.253956187849E+04   -0.27638E-03   -0.31997E-03  8476   0.473E-02    0.126E-01
RMM:   8    -0.253956175704E+04    0.12145E-03   -0.66635E-04  5157   0.348E-02    0.989E-02
RMM:   9    -0.253956172110E+04    0.35939E-04   -0.31757E-04  4192   0.285E-02
  70 F= -.25395617E+04 E0= -.25395384E+04  d E =-.296942E+00  mag=   253.0000
       N       E                     dE             d eps       ncg     rms          rms(c)
DAV:   1    -0.253860774547E+04    0.95401E+00   -0.17778E+02  8160   0.128E+01    0.547E+00
RMM:   2    -0.253933148966E+04   -0.72374E+00   -0.77601E+00  7661   0.503E+00    0.463E+00
RMM:   3    -0.253959125226E+04   -0.25976E+00   -0.23072E+00  8699   0.156E+00    0.197E+00
RMM:   4    -0.253958695012E+04    0.43021E-02   -0.27118E-01  9129   0.549E-01    0.157E+00
RMM:   5    -0.253957718412E+04    0.97660E-02   -0.81696E-02  9394   0.244E-01    0.112E+00
RMM:   6    -0.253957486493E+04    0.23192E-02   -0.41656E-02  9088   0.188E-01    0.515E-01
RMM:   7    -0.253957621791E+04   -0.13530E-02   -0.14305E-02  9954   0.934E-02    0.243E-01
RMM:   8    -0.253957576457E+04    0.45334E-03   -0.33478E-03  8461   0.491E-02    0.177E-01
RMM:   9    -0.253957564345E+04    0.12112E-03   -0.17176E-03  7106   0.394E-02    0.113E-01
RMM:  10    -0.253957564675E+04   -0.33063E-05   -0.10650E-03  6432   0.347E-02    0.638E-02
RMM:  11    -0.253957567510E+04   -0.28349E-04   -0.33428E-04  4209   0.284E-02
  71 F= -.25395757E+04 E0= -.25395538E+04  d E =-.310896E+00  mag=   253.0000
       N       E                     dE             d eps       ncg     rms          rms(c)
DAV:   1    -0.253934116919E+04    0.23448E+00   -0.48404E+01  7920   0.667E+00    0.264E+00
RMM:   2    -0.253953979536E+04   -0.19863E+00   -0.21863E+00  8027   0.258E+00    0.204E+00
RMM:   3    -0.253960084495E+04   -0.61050E-01   -0.53509E-01  8588   0.733E-01    0.909E-01
RMM:   4    -0.253959900470E+04    0.18403E-02   -0.64404E-02  8966   0.280E-01    0.700E-01
RMM:   5    -0.253959666628E+04    0.23384E-02   -0.21282E-02  9236   0.128E-01    0.522E-01
RMM:   6    -0.253959626014E+04    0.40614E-03   -0.10597E-02  8952   0.955E-02    0.244E-01
RMM:   7    -0.253959654417E+04   -0.28403E-03   -0.28537E-03  8231   0.459E-02    0.120E-01
RMM:   8    -0.253959647662E+04    0.67547E-04   -0.59352E-04  4954   0.347E-02
  72 F= -.25395965E+04 E0= -.25395740E+04  d E =-.331698E+00  mag=   253.0000
       N       E                     dE             d eps       ncg     rms          rms(c)
DAV:   1    -0.253944776960E+04    0.14877E+00   -0.54007E+01  6960   0.681E+00    0.315E+00
RMM:   2    -0.253971391008E+04   -0.26614E+00   -0.26234E+00  8098   0.286E+00    0.296E+00
RMM:   3    -0.253979160497E+04   -0.77695E-01   -0.63382E-01  8672   0.807E-01    0.110E+00
RMM:   4    -0.253979130311E+04    0.30185E-03   -0.78034E-02  9163   0.285E-01    0.786E-01
RMM:   5    -0.253978912852E+04    0.21746E-02   -0.22449E-02  9602   0.124E-01    0.660E-01
RMM:   6    -0.253978752755E+04    0.16010E-02   -0.11902E-02  8936   0.101E-01    0.366E-01
RMM:   7    -0.253978794173E+04   -0.41418E-03   -0.56353E-03  9363   0.669E-02    0.162E-01
RMM:   8    -0.253978787044E+04    0.71298E-04   -0.73785E-04  5520   0.325E-02
  73 F= -.25397879E+04 E0= -.25397648E+04  d E =-.191394E+00  mag=   253.0000
       N       E                     dE             d eps       ncg     rms          rms(c)
DAV:   1    -0.253918909681E+04    0.59884E+00   -0.11588E+02  6880   0.997E+00    0.474E+00
RMM:   2    -0.253976813705E+04   -0.57904E+00   -0.57156E+00  8078   0.423E+00    0.455E+00
RMM:   3    -0.253994020985E+04   -0.17207E+00   -0.14101E+00  8758   0.120E+00    0.168E+00
RMM:   4    -0.253994009249E+04    0.11736E-03   -0.17694E-01  9314   0.417E-01    0.118E+00
RMM:   5    -0.253993549338E+04    0.45991E-02   -0.49277E-02  9702   0.183E-01    0.999E-01
RMM:   6    -0.253993247538E+04    0.30180E-02   -0.26053E-02  9066   0.144E-01    0.554E-01
RMM:   7    -0.253993350021E+04   -0.10248E-02   -0.12803E-02  9607   0.999E-02    0.241E-01
RMM:   8    -0.253993341362E+04    0.86588E-04   -0.23495E-03  8192   0.469E-02    0.178E-01
RMM:   9    -0.253993327049E+04    0.14313E-03   -0.10591E-03  5922   0.385E-02    0.120E-01
RMM:  10    -0.253993321124E+04    0.59252E-04   -0.81395E-04  5271   0.348E-02
  74 F= -.25399332E+04 E0= -.25399092E+04  d E =-.336735E+00  mag=   253.0000
       N       E                     dE             d eps       ncg     rms          rms(c)
DAV:   1    -0.253989567525E+04    0.37595E-01   -0.76455E+00  7200   0.256E+00    0.117E+00
RMM:   2    -0.253993385636E+04   -0.38181E-01   -0.37559E-01  8086   0.108E+00    0.108E+00
RMM:   3    -0.253994527345E+04   -0.11417E-01   -0.93578E-02  8859   0.306E-01    0.396E-01
RMM:   4    -0.253994516575E+04    0.10770E-03   -0.11818E-02  9130   0.106E-01    0.291E-01
RMM:   5    -0.253994481992E+04    0.34583E-03   -0.32630E-03  8501   0.503E-02    0.238E-01
RMM:   6    -0.253994461195E+04    0.20798E-03   -0.18297E-03  7519   0.459E-02    0.125E-01
RMM:   7    -0.253994465266E+04   -0.40716E-04   -0.77399E-04  5681   0.346E-02
  75 F= -.25399447E+04 E0= -.25399205E+04  d E =-.348176E+00  mag=   253.0000
       N       E                     dE             d eps       ncg     rms          rms(c)
DAV:   1    -0.253963324238E+04    0.31137E+00   -0.74446E+01  7520   0.817E+00    0.475E+00
RMM:   2    -0.253994511422E+04   -0.31187E+00   -0.37072E+00  7555   0.361E+00    0.428E+00
RMM:   3    -0.254008744460E+04   -0.14233E+00   -0.11905E+00  8559   0.115E+00    0.151E+00
RMM:   4    -0.254009119937E+04   -0.37548E-02   -0.15873E-01  9124   0.395E-01    0.119E+00
RMM:   5    -0.254008934002E+04    0.18593E-02   -0.36368E-02  9855   0.157E-01    0.952E-01
RMM:   6    -0.254008603205E+04    0.33080E-02   -0.22154E-02  8777   0.140E-01    0.586E-01
RMM:   7    -0.254008686838E+04   -0.83633E-03   -0.13443E-02  9267   0.106E-01    0.229E-01
RMM:   8    -0.254008660997E+04    0.25841E-03   -0.19615E-03  7701   0.439E-02    0.147E-01
RMM:   9    -0.254008649460E+04    0.11536E-03   -0.10402E-03  6374   0.338E-02    0.864E-02
RMM:  10    -0.254008648625E+04    0.83575E-05   -0.82247E-04  5363   0.329E-02
  76 F= -.25400865E+04 E0= -.25400618E+04  d E =-.141834E+00  mag=   253.0000
       N       E                     dE             d eps       ncg     rms          rms(c)
DAV:   1    -0.253995357710E+04    0.13292E+00   -0.27600E+01  7920   0.498E+00    0.293E+00
RMM:   2    -0.254007046779E+04   -0.11689E+00   -0.13709E+00  7493   0.221E+00    0.269E+00
RMM:   3    -0.254012423353E+04   -0.53766E-01   -0.45060E-01  8573   0.708E-01    0.956E-01
RMM:   4    -0.254012572115E+04   -0.14876E-02   -0.60804E-02  9096   0.241E-01    0.746E-01
RMM:   5    -0.254012500225E+04    0.71890E-03   -0.13977E-02  9628   0.975E-02    0.602E-01
RMM:   6    -0.254012378963E+04    0.12126E-02   -0.86484E-03  8817   0.888E-02    0.362E-01
RMM:   7    -0.254012414471E+04   -0.35508E-03   -0.51607E-03  9025   0.662E-02    0.145E-01
RMM:   8    -0.254012403545E+04    0.10925E-03   -0.54989E-04  5115   0.304E-02    0.956E-02
RMM:   9    -0.254012398785E+04    0.47609E-04   -0.25319E-04  4017   0.270E-02
  77 F= -.25401240E+04 E0= -.25400993E+04  d E =-.179335E+00  mag=   253.0000
       N       E                     dE             d eps       ncg     rms          rms(c)
DAV:   1    -0.253988092035E+04    0.24312E+00   -0.76994E+01  7120   0.804E+00    0.291E+00
RMM:   2    -0.254017944776E+04   -0.29853E+00   -0.32303E+00  7741   0.319E+00    0.259E+00
RMM:   3    -0.254027397464E+04   -0.94527E-01   -0.86273E-01  8653   0.953E-01    0.115E+00
RMM:   4    -0.254027336455E+04    0.61009E-03   -0.10278E-01  9238   0.313E-01    0.985E-01
RMM:   5    -0.254027251937E+04    0.84517E-03   -0.32839E-02 10010   0.123E-01    0.764E-01
RMM:   6    -0.254026961963E+04    0.28997E-02   -0.21462E-02  8606   0.146E-01    0.496E-01
RMM:   7    -0.254027066066E+04   -0.10410E-02   -0.11702E-02  9145   0.894E-02    0.189E-01
RMM:   8    -0.254027018503E+04    0.47562E-03   -0.14756E-03  6882   0.433E-02    0.129E-01
RMM:   9    -0.254027005651E+04    0.12852E-03   -0.11176E-03  6280   0.329E-02    0.726E-02
RMM:  10    -0.254027002816E+04    0.28352E-04   -0.60797E-04  5144   0.340E-02
  78 F= -.25402700E+04 E0= -.25402448E+04  d E =-.146040E+00  mag=   253.0000
       N       E                     dE             d eps       ncg     rms          rms(c)
DAV:   1    -0.254019852218E+04    0.71534E-01   -0.27091E+01  7200   0.476E+00    0.167E+00
RMM:   2    -0.254030379315E+04   -0.10527E+00   -0.11347E+00  7782   0.188E+00    0.146E+00
RMM:   3    -0.254033637602E+04   -0.32583E-01   -0.29736E-01  8698   0.556E-01    0.659E-01
RMM:   4    -0.254033608013E+04    0.29589E-03   -0.36052E-02  9203   0.183E-01    0.565E-01
RMM:   5    -0.254033567225E+04    0.40788E-03   -0.11483E-02  9457   0.742E-02    0.433E-01
RMM:   6    -0.254033470623E+04    0.96601E-03   -0.81451E-03  8615   0.922E-02    0.280E-01
RMM:   7    -0.254033505199E+04   -0.34576E-03   -0.38893E-03  8692   0.518E-02    0.112E-01
RMM:   8    -0.254033487814E+04    0.17385E-03   -0.38777E-04  4486   0.314E-02    0.773E-02
RMM:   9    -0.254033482732E+04    0.50817E-04   -0.28013E-04  4109   0.241E-02
  79 F= -.25403348E+04 E0= -.25403095E+04  d E =-.210839E+00  mag=   253.0000
       N       E                     dE             d eps       ncg     rms          rms(c)
DAV:   1    -0.253986320501E+04    0.47167E+00   -0.10806E+02  7120   0.952E+00    0.341E+00
RMM:   2    -0.254028554638E+04   -0.42234E+00   -0.45357E+00  7672   0.380E+00    0.302E+00
RMM:   3    -0.254042060275E+04   -0.13506E+00   -0.12330E+00  8622   0.115E+00    0.135E+00
RMM:   4    -0.254042019469E+04    0.40806E-03   -0.14845E-01  9323   0.368E-01    0.114E+00
RMM:   5    -0.254041837214E+04    0.18226E-02   -0.45804E-02  9974   0.146E-01    0.893E-01
RMM:   6    -0.254041459901E+04    0.37731E-02   -0.30737E-02  8643   0.169E-01    0.564E-01
RMM:   7    -0.254041592581E+04   -0.13268E-02   -0.14955E-02  9363   0.101E-01    0.211E-01
RMM:   8    -0.254041529076E+04    0.63505E-03   -0.21486E-03  7613   0.456E-02    0.143E-01
RMM:   9    -0.254041513367E+04    0.15709E-03   -0.14549E-03  7026   0.352E-02    0.811E-02
RMM:  10    -0.254041510615E+04    0.27525E-04   -0.79811E-04  5824   0.352E-02
  80 F= -.25404151E+04 E0= -.25403900E+04  d E =-.291118E+00  mag=   253.0000
       N       E                     dE             d eps       ncg     rms          rms(c)
DAV:   1    -0.253997826481E+04    0.43687E+00   -0.11884E+02  6080   0.955E+00    0.296E+00
RMM:   2    -0.254043919444E+04   -0.46093E+00   -0.45026E+00  7829   0.353E+00    0.170E+00
RMM:   3    -0.254056774658E+04   -0.12855E+00   -0.11153E+00  8578   0.981E-01    0.906E-01
RMM:   4    -0.254056736413E+04    0.38245E-03   -0.12714E-01  9250   0.314E-01    0.747E-01
RMM:   5    -0.254056508708E+04    0.22771E-02   -0.42958E-02  9904   0.128E-01    0.530E-01
RMM:   6    -0.254056223795E+04    0.28491E-02   -0.25232E-02  8902   0.143E-01    0.332E-01
RMM:   7    -0.254056316831E+04   -0.93035E-03   -0.10759E-02  9352   0.747E-02    0.182E-01
RMM:   8    -0.254056304797E+04    0.12034E-03   -0.14993E-03  6434   0.416E-02    0.112E-01
RMM:   9    -0.254056300755E+04    0.40424E-04   -0.10405E-03  5701   0.325E-02    0.794E-02
RMM:  10    -0.254056301912E+04   -0.11572E-04   -0.55726E-04  4754   0.319E-02
  81 F= -.25405630E+04 E0= -.25405394E+04  d E =-.147913E+00  mag=   253.0000
       N       E                     dE             d eps       ncg     rms          rms(c)
DAV:   1    -0.254042690064E+04    0.13611E+00   -0.39243E+01  6240   0.549E+00    0.171E+00
RMM:   2    -0.254058065674E+04   -0.15376E+00   -0.14954E+00  7835   0.204E+00    0.998E-01
RMM:   3    -0.254062362601E+04   -0.42969E-01   -0.37186E-01  8571   0.566E-01    0.516E-01
RMM:   4    -0.254062359300E+04    0.33012E-04   -0.42757E-02  9204   0.178E-01    0.425E-01
RMM:   5    -0.254062275105E+04    0.84195E-03   -0.14699E-02  9518   0.768E-02    0.302E-01
RMM:   6    -0.254062197397E+04    0.77708E-03   -0.88381E-03  8895   0.847E-02    0.175E-01
RMM:   7    -0.254062227601E+04   -0.30204E-03   -0.31610E-03  8015   0.431E-02    0.933E-02
RMM:   8    -0.254062224461E+04    0.31402E-04   -0.47556E-04  4754   0.326E-02
  82 F= -.25406222E+04 E0= -.25405996E+04  d E =-.207138E+00  mag=   253.0000
       N       E                     dE             d eps       ncg     rms          rms(c)
DAV:   1    -0.253990175841E+04    0.72052E+00   -0.15660E+02  6080   0.110E+01    0.339E+00
RMM:   2    -0.254051582088E+04   -0.61406E+00   -0.60205E+00  7835   0.408E+00    0.193E+00
RMM:   3    -0.254068542707E+04   -0.16961E+00   -0.14678E+00  8580   0.113E+00    0.103E+00
RMM:   4    -0.254068540928E+04    0.17785E-04   -0.16859E-01  9274   0.357E-01    0.834E-01
RMM:   5    -0.254068174306E+04    0.36662E-02   -0.56196E-02  9871   0.151E-01    0.585E-01
RMM:   6    -0.254067843290E+04    0.33102E-02   -0.31920E-02  8953   0.157E-01    0.341E-01
RMM:   7    -0.254067954603E+04   -0.11131E-02   -0.12894E-02  9460   0.820E-02    0.193E-01
RMM:   8    -0.254067939831E+04    0.14772E-03   -0.19226E-03  6883   0.438E-02    0.121E-01
RMM:   9    -0.254067936853E+04    0.29782E-04   -0.13757E-03  6263   0.345E-02    0.830E-02
RMM:  10    -0.254067938547E+04   -0.16941E-04   -0.65963E-04  5063   0.331E-02
  83 F= -.25406794E+04 E0= -.25406586E+04  d E =-.264279E+00  mag=   253.0000
       N       E                     dE             d eps       ncg     rms          rms(c)
DAV:   1    -0.254047855038E+04    0.20082E+00   -0.63255E+01  6320   0.698E+00    0.190E+00
RMM:   2    -0.254070342985E+04   -0.22488E+00   -0.23312E+00  7754   0.255E+00    0.141E+00
RMM:   3    -0.254076779856E+04   -0.64369E-01   -0.60003E-01  8613   0.732E-01    0.662E-01
RMM:   4    -0.254076790563E+04   -0.10707E-03   -0.72635E-02  9370   0.220E-01    0.569E-01
RMM:   5    -0.254076645796E+04    0.14477E-02   -0.25637E-02  9645   0.991E-02    0.394E-01
RMM:   6    -0.254076559521E+04    0.86274E-03   -0.13469E-02  9048   0.103E-01    0.233E-01
RMM:   7    -0.254076602823E+04   -0.43302E-03   -0.47529E-03  8548   0.479E-02    0.119E-01
RMM:   8    -0.254076592100E+04    0.10723E-03   -0.87623E-04  5565   0.393E-02    0.868E-02
RMM:   9    -0.254076592021E+04    0.79095E-06   -0.63148E-04  4859   0.261E-02
  84 F= -.25407659E+04 E0= -.25407458E+04  d E =-.865347E-01  mag=   253.0000
       N       E                     dE             d eps       ncg     rms          rms(c)
DAV:   1    -0.253825452667E+04    0.25114E+01   -0.56678E+02  6160   0.209E+01    0.622E+00
RMM:   2    -0.254035491853E+04   -0.21004E+01   -0.21648E+01  7665   0.783E+00    0.515E+00
RMM:   3    -0.254095835937E+04   -0.60344E+00   -0.56259E+00  8533   0.230E+00    0.230E+00
RMM:   4    -0.254095701833E+04    0.13410E-02   -0.67661E-01  9436   0.699E-01    0.201E+00
RMM:   5    -0.254094395832E+04    0.13060E-01   -0.22749E-01  9811   0.286E-01    0.146E+00
RMM:   6    -0.254093172407E+04    0.12234E-01   -0.11679E-01  8983   0.309E-01    0.827E-01
RMM:   7    -0.254093527259E+04   -0.35485E-02   -0.46679E-02  9681   0.153E-01    0.444E-01
RMM:   8    -0.254093473983E+04    0.53276E-03   -0.91471E-03  9673   0.873E-02    0.279E-01
RMM:   9    -0.254093470589E+04    0.33931E-04   -0.54450E-03  8812   0.474E-02    0.162E-01
RMM:  10    -0.254093468833E+04    0.17569E-04   -0.17629E-03  7090   0.497E-02    0.125E-01
RMM:  11    -0.254093476829E+04   -0.79968E-04   -0.14094E-03  6384   0.370E-02    0.746E-02
RMM:  12    -0.254093481146E+04   -0.43164E-04   -0.58496E-04  4877   0.327E-02
  85 F= -.25409348E+04 E0= -.25409152E+04  d E =-.255426E+00  mag=   253.0000
       N       E                     dE             d eps       ncg     rms          rms(c)
DAV:   1    -0.254050019529E+04    0.43457E+00   -0.10089E+02  6400   0.882E+00    0.241E+00
RMM:   2    -0.254086025489E+04   -0.36006E+00   -0.37248E+00  7734   0.323E+00    0.184E+00
RMM:   3    -0.254096284262E+04   -0.10259E+00   -0.95570E-01  8589   0.929E-01    0.859E-01
RMM:   4    -0.254096327539E+04   -0.43276E-03   -0.11730E-01  9433   0.277E-01    0.740E-01
RMM:   5    -0.254096074931E+04    0.25261E-02   -0.39275E-02  9592   0.124E-01    0.526E-01
RMM:   6    -0.254095926776E+04    0.14815E-02   -0.21940E-02  9056   0.129E-01    0.276E-01
RMM:   7    -0.254095994248E+04   -0.67471E-03   -0.75266E-03  9445   0.613E-02    0.161E-01
RMM:   8    -0.254095974907E+04    0.19340E-03   -0.13831E-03  6267   0.373E-02    0.114E-01
RMM:   9    -0.254095974332E+04    0.57555E-05   -0.10026E-03  5768   0.296E-02    0.653E-02
RMM:  10    -0.254095974475E+04   -0.14324E-05   -0.50060E-04  4546   0.317E-02
  86 F= -.25409597E+04 E0= -.25409397E+04  d E =-.280359E+00  mag=   253.0000
       N       E                     dE             d eps       ncg     rms          rms(c)
DAV:   1    -0.254086040823E+04    0.99335E-01   -0.26972E+01  6880   0.471E+00    0.234E+00
RMM:   2    -0.254101617310E+04   -0.15576E+00   -0.12867E+00  8045   0.193E+00    0.169E+00
RMM:   3    -0.254106293827E+04   -0.46765E-01   -0.32782E-01  8819   0.541E-01    0.644E-01
RMM:   4    -0.254106278780E+04    0.15047E-03   -0.41463E-02  9041   0.196E-01    0.477E-01
RMM:   5    -0.254106196757E+04    0.82024E-03   -0.11516E-02  9555   0.842E-02    0.401E-01
RMM:   6    -0.254106133021E+04    0.63736E-03   -0.57644E-03  9226   0.638E-02    0.206E-01
RMM:   7    -0.254106135051E+04   -0.20307E-04   -0.20135E-03  7543   0.468E-02    0.129E-01
RMM:   8    -0.254106139424E+04   -0.43727E-04   -0.56938E-04  4857   0.334E-02
  87 F= -.25410614E+04 E0= -.25410416E+04  d E =-.101649E+00  mag=   253.0000
       N       E                     dE             d eps       ncg     rms          rms(c)
DAV:   1    -0.254077396083E+04    0.28739E+00   -0.45360E+01  6800   0.611E+00    0.304E+00
RMM:   2    -0.254103648109E+04   -0.26252E+00   -0.21723E+00  8036   0.251E+00    0.219E+00
RMM:   3    -0.254111634272E+04   -0.79862E-01   -0.55892E-01  8786   0.706E-01    0.834E-01
RMM:   4    -0.254111655089E+04   -0.20816E-03   -0.71085E-02  9017   0.258E-01    0.622E-01
RMM:   5    -0.254111542464E+04    0.11262E-02   -0.19664E-02  9794   0.108E-01    0.527E-01
RMM:   6    -0.254111435901E+04    0.10656E-02   -0.95289E-03  9341   0.802E-02    0.284E-01
RMM:   7    -0.254111445603E+04   -0.97023E-04   -0.39242E-03  8887   0.610E-02    0.160E-01
RMM:   8    -0.254111453301E+04   -0.76978E-04   -0.99930E-04  5985   0.351E-02
  88 F= -.25411145E+04 E0= -.25410950E+04  d E =-.154788E+00  mag=   253.0000
       N       E                     dE             d eps       ncg     rms          rms(c)
DAV:   1    -0.254102139802E+04    0.93058E-01   -0.23820E+01  6640   0.445E+00    0.220E+00
RMM:   2    -0.254113862545E+04   -0.11723E+00   -0.12545E+00  7867   0.199E+00    0.195E+00
RMM:   3    -0.254117860382E+04   -0.39978E-01   -0.33329E-01  8773   0.570E-01    0.707E-01
RMM:   4    -0.254117888022E+04   -0.27640E-03   -0.40937E-02  9791   0.178E-01    0.513E-01
RMM:   5    -0.254117758747E+04    0.12927E-02   -0.10725E-02  9661   0.808E-02    0.430E-01
RMM:   6    -0.254117722310E+04    0.36437E-03   -0.56431E-03  9052   0.644E-02    0.221E-01
RMM:   7    -0.254117745087E+04   -0.22777E-03   -0.24842E-03  8589   0.470E-02    0.107E-01
RMM:   8    -0.254117744921E+04    0.16684E-05   -0.38439E-04  4403   0.267E-02
  89 F= -.25411774E+04 E0= -.25411581E+04  d E =-.629162E-01  mag=   253.0000
       N       E                     dE             d eps       ncg     rms          rms(c)
DAV:   1    -0.254061328959E+04    0.56416E+00   -0.90556E+01  6400   0.867E+00    0.417E+00
RMM:   2    -0.254105214449E+04   -0.43885E+00   -0.46960E+00  7899   0.383E+00    0.357E+00
RMM:   3    -0.254120136176E+04   -0.14922E+00   -0.12364E+00  8695   0.110E+00    0.130E+00
RMM:   4    -0.254120245659E+04   -0.10948E-02   -0.15182E-01  9633   0.354E-01    0.970E-01
RMM:   5    -0.254119798459E+04    0.44720E-02   -0.38645E-02  9821   0.151E-01    0.793E-01
RMM:   6    -0.254119610922E+04    0.18754E-02   -0.21995E-02  9212   0.127E-01    0.404E-01
RMM:   7    -0.254119697333E+04   -0.86411E-03   -0.97132E-03  9734   0.846E-02    0.210E-01
RMM:   8    -0.254119695558E+04    0.17755E-04   -0.19860E-03  8325   0.367E-02    0.121E-01
RMM:   9    -0.254119690165E+04    0.53928E-04   -0.96381E-04  5925   0.356E-02
  90 F= -.25411969E+04 E0= -.25411779E+04  d E =-.823686E-01  mag=   253.0000
       N       E                     dE             d eps       ncg     rms          rms(c)
DAV:   1    -0.254111732260E+04    0.79633E-01   -0.13985E+01  6800   0.341E+00    0.177E+00
RMM:   2    -0.254118345735E+04   -0.66135E-01   -0.70200E-01  7718   0.151E+00    0.167E+00
RMM:   3    -0.254120675625E+04   -0.23299E-01   -0.19482E-01  8630   0.449E-01    0.601E-01
RMM:   4    -0.254120699145E+04   -0.23520E-03   -0.24059E-02  9427   0.144E-01    0.426E-01
RMM:   5    -0.254120619837E+04    0.79308E-03   -0.53555E-03  8808   0.619E-02    0.372E-01
RMM:   6    -0.254120574490E+04    0.45347E-03   -0.28120E-03  8235   0.516E-02    0.205E-01
RMM:   7    -0.254120575082E+04   -0.59256E-05   -0.12883E-03  6846   0.403E-02    0.879E-02
RMM:   8    -0.254120574539E+04    0.54284E-05   -0.24598E-04  3973   0.283E-02
  91 F= -.25412057E+04 E0= -.25411867E+04  d E =-.912124E-01  mag=   253.0000
       N       E                     dE             d eps       ncg     rms          rms(c)
DAV:   1    -0.254106832524E+04    0.13743E+00   -0.33635E+01  7040   0.527E+00    0.259E+00
RMM:   2    -0.254121374941E+04   -0.14542E+00   -0.16461E+00  7696   0.227E+00    0.249E+00
RMM:   3    -0.254126235670E+04   -0.48607E-01   -0.42360E-01  8598   0.664E-01    0.930E-01
RMM:   4    -0.254126207548E+04    0.28122E-03   -0.48779E-02  9596   0.208E-01    0.680E-01
RMM:   5    -0.254126054775E+04    0.15277E-02   -0.14198E-02  9612   0.918E-02    0.547E-01
RMM:   6    -0.254125981245E+04    0.73529E-03   -0.81078E-03  8873   0.789E-02    0.258E-01
RMM:   7    -0.254126001542E+04   -0.20296E-03   -0.29072E-03  8671   0.473E-02    0.132E-01
RMM:   8    -0.254125991999E+04    0.95431E-04   -0.40677E-04  4544   0.296E-02
  92 F= -.25412599E+04 E0= -.25412404E+04  d E =-.541746E-01  mag=   253.0000
       N       E                     dE             d eps       ncg     rms          rms(c)
DAV:   1    -0.254120731247E+04    0.52703E-01   -0.12030E+01  7120   0.315E+00    0.153E+00
RMM:   2    -0.254126042077E+04   -0.53108E-01   -0.60330E-01  7781   0.136E+00    0.148E+00
RMM:   3    -0.254127807351E+04   -0.17653E-01   -0.15347E-01  8751   0.392E-01    0.551E-01
RMM:   4    -0.254127796386E+04    0.10965E-03   -0.18247E-02  9630   0.123E-01    0.395E-01
RMM:   5    -0.254127742362E+04    0.54024E-03   -0.54111E-03  8966   0.567E-02    0.306E-01
RMM:   6    -0.254127724974E+04    0.17388E-03   -0.31745E-03  8531   0.522E-02    0.149E-01
RMM:   7    -0.254127729422E+04   -0.44481E-04   -0.77845E-04  5629   0.316E-02
  93 F= -.25412773E+04 E0= -.25412575E+04  d E =-.715488E-01  mag=   253.0000
       N       E                     dE             d eps       ncg     rms          rms(c)
DAV:   1    -0.254100135955E+04    0.27589E+00   -0.47970E+01  6800   0.630E+00    0.314E+00
RMM:   2    -0.254120939795E+04   -0.20804E+00   -0.23682E+00  7681   0.272E+00    0.300E+00
RMM:   3    -0.254128116377E+04   -0.71766E-01   -0.62691E-01  8660   0.799E-01    0.111E+00
RMM:   4    -0.254128102216E+04    0.14161E-03   -0.73580E-02  9665   0.250E-01    0.824E-01
RMM:   5    -0.254127916809E+04    0.18541E-02   -0.21576E-02  9815   0.110E-01    0.653E-01
RMM:   6    -0.254127826713E+04    0.90097E-03   -0.11939E-02  9123   0.928E-02    0.314E-01
RMM:   7    -0.254127861465E+04   -0.34752E-03   -0.45929E-03  9255   0.566E-02    0.159E-01
RMM:   8    -0.254127849234E+04    0.12231E-03   -0.79181E-04  5786   0.331E-02    0.943E-02
RMM:   9    -0.254127842401E+04    0.68326E-04   -0.40846E-04  4497   0.281E-02
  94 F= -.25412784E+04 E0= -.25412581E+04  d E =-.726786E-01  mag=   253.0000
       N       E                     dE             d eps       ncg     rms          rms(c)
DAV:   1    -0.254120658338E+04    0.71909E-01   -0.13850E+01  7040   0.338E+00    0.160E+00
RMM:   2    -0.254126569734E+04   -0.59114E-01   -0.68405E-01  7853   0.143E+00    0.150E+00
RMM:   3    -0.254128428471E+04   -0.18587E-01   -0.16101E-01  8602   0.404E-01    0.555E-01
RMM:   4    -0.254128404502E+04    0.23968E-03   -0.17796E-02  9403   0.131E-01    0.399E-01
RMM:   5    -0.254128342904E+04    0.61598E-03   -0.54087E-03  8882   0.600E-02    0.319E-01
RMM:   6    -0.254128324278E+04    0.18627E-03   -0.28702E-03  8099   0.514E-02    0.161E-01
RMM:   7    -0.254128333844E+04   -0.95662E-04   -0.79075E-04  5740   0.332E-02
  95 F= -.25412833E+04 E0= -.25412633E+04  d E =-.775930E-01  mag=   253.0000
       N       E                     dE             d eps       ncg     rms          rms(c)
DAV:   1    -0.254109235988E+04    0.19088E+00   -0.42463E+01  7360   0.593E+00    0.250E+00
RMM:   2    -0.254127293439E+04   -0.18057E+00   -0.17955E+00  7816   0.234E+00    0.189E+00
RMM:   3    -0.254132893918E+04   -0.56005E-01   -0.44960E-01  8481   0.672E-01    0.729E-01
RMM:   4    -0.254132866746E+04    0.27172E-03   -0.51448E-02  9120   0.226E-01    0.575E-01
RMM:   5    -0.254132704193E+04    0.16255E-02   -0.15571E-02  9521   0.966E-02    0.407E-01
RMM:   6    -0.254132652335E+04    0.51857E-03   -0.76369E-03  8880   0.790E-02    0.177E-01
RMM:   7    -0.254132677417E+04   -0.25081E-03   -0.24953E-03  8234   0.399E-02    0.101E-01
RMM:   8    -0.254132674688E+04    0.27288E-04   -0.37777E-04  4497   0.299E-02
  96 F= -.25413267E+04 E0= -.25413066E+04  d E =-.434084E-01  mag=   253.0000
       N       E                     dE             d eps       ncg     rms          rms(c)
DAV:   1    -0.254124934955E+04    0.77425E-01   -0.15379E+01  7680   0.357E+00    0.152E+00
RMM:   2    -0.254131583067E+04   -0.66481E-01   -0.65856E-01  7804   0.142E+00    0.115E+00
RMM:   3    -0.254133708653E+04   -0.21256E-01   -0.17169E-01  8598   0.411E-01    0.440E-01
RMM:   4    -0.254133710170E+04   -0.15170E-04   -0.20200E-02  9140   0.137E-01    0.345E-01
RMM:   5    -0.254133663405E+04    0.46765E-03   -0.61851E-03  8950   0.601E-02    0.238E-01
RMM:   6    -0.254133653279E+04    0.10126E-03   -0.30439E-03  8354   0.533E-02    0.111E-01
RMM:   7    -0.254133662678E+04   -0.93991E-04   -0.83756E-04  5563   0.312E-02
  97 F= -.25413366E+04 E0= -.25413164E+04  d E =-.532883E-01  mag=   253.0000
       N       E                     dE             d eps       ncg     rms          rms(c)
DAV:   1    -0.254097234936E+04    0.36418E+00   -0.61400E+01  7200   0.714E+00    0.301E+00
RMM:   2    -0.254123936180E+04   -0.26701E+00   -0.26651E+00  7919   0.284E+00    0.222E+00
RMM:   3    -0.254132170759E+04   -0.82346E-01   -0.66062E-01  8551   0.802E-01    0.861E-01
RMM:   4    -0.254132136464E+04    0.34295E-03   -0.76619E-02  9259   0.269E-01    0.675E-01
RMM:   5    -0.254131925687E+04    0.21078E-02   -0.24033E-02  9713   0.116E-01    0.465E-01
RMM:   6    -0.254131869270E+04    0.56417E-03   -0.11782E-02  9160   0.959E-02    0.217E-01
RMM:   7    -0.254131908415E+04   -0.39145E-03   -0.39777E-03  8852   0.463E-02    0.129E-01
RMM:   8    -0.254131905309E+04    0.31061E-04   -0.71157E-04  5414   0.333E-02
  98 F= -.25413191E+04 E0= -.25412986E+04  d E =-.357146E-01  mag=   253.0000
       N       E                     dE             d eps       ncg     rms          rms(c)
DAV:   1    -0.254112560317E+04    0.19348E+00   -0.38119E+01  7600   0.563E+00    0.251E+00
RMM:   2    -0.254128529299E+04   -0.15969E+00   -0.15686E+00  7595   0.224E+00    0.206E+00
RMM:   3    -0.254133921128E+04   -0.53918E-01   -0.44112E-01  8470   0.682E-01    0.766E-01
RMM:   4    -0.254133937001E+04   -0.15873E-03   -0.50923E-02  9208   0.222E-01    0.606E-01
RMM:   5    -0.254133779207E+04    0.15779E-02   -0.13696E-02  9520   0.896E-02    0.432E-01
RMM:   6    -0.254133706265E+04    0.72942E-03   -0.65394E-03  8680   0.742E-02    0.176E-01
RMM:   7    -0.254133720257E+04   -0.13992E-03   -0.22598E-03  8136   0.412E-02    0.103E-01
RMM:   8    -0.254133715879E+04    0.43778E-04   -0.32526E-04  4334   0.286E-02
  99 F= -.25413372E+04 E0= -.25413170E+04  d E =-.538204E-01  mag=   253.0000
