       N       E                     dE             d eps       ncg     rms          rms(c)
DAV:   1     0.401251074469E+05    0.40125E+05   -0.85857E+05  6800   0.262E+03
DAV:   2     0.145206123844E+05   -0.25604E+05   -0.22865E+05  6640   0.688E+02
DAV:   3     0.342189809653E+04   -0.11099E+05   -0.99939E+04  7120   0.356E+02
DAV:   4    -0.166239468891E+04   -0.50843E+04   -0.47166E+04  9760   0.201E+02
DAV:   5    -0.283457577044E+04   -0.11722E+04   -0.11375E+04 10720   0.105E+02    0.217E+02
RMM:   6    -0.250692749384E+04    0.32765E+03   -0.77691E+03  8833   0.111E+02    0.344E+02
RMM:   7    -0.257333882998E+04   -0.66411E+02   -0.18095E+03  9326   0.371E+01    0.190E+02
RMM:   8    -0.247119034487E+04    0.10215E+03   -0.12116E+03  7214   0.563E+01    0.988E+01
RMM:   9    -0.254562059126E+04   -0.74430E+02   -0.74488E+02  8688   0.192E+01    0.695E+01
RMM:  10    -0.254284158026E+04    0.27790E+01   -0.17103E+02  8396   0.134E+01    0.389E+01
RMM:  11    -0.253706805130E+04    0.57735E+01   -0.10186E+02  9293   0.822E+00    0.241E+01
RMM:  12    -0.253615089246E+04    0.91716E+00   -0.31245E+01  9382   0.460E+00    0.213E+01
RMM:  13    -0.253616806430E+04   -0.17172E-01   -0.97636E+00 10265   0.174E+00    0.200E+01
RMM:  14    -0.253584134164E+04    0.32672E+00   -0.44702E+00  8783   0.195E+00    0.185E+01
RMM:  15    -0.253629256949E+04   -0.45123E+00   -0.71351E+00  9020   0.220E+00    0.154E+01
RMM:  16    -0.253561816566E+04    0.67440E+00   -0.13755E+00  8763   0.105E+00    0.129E+01
RMM:  17    -0.253513543143E+04    0.48273E+00   -0.12484E+00  9030   0.861E-01    0.108E+01
RMM:  18    -0.253475717827E+04    0.37825E+00   -0.31016E+00  8973   0.140E+00    0.540E+00
RMM:  19    -0.253479812765E+04   -0.40949E-01   -0.95013E-01  9346   0.859E-01    0.353E+00
RMM:  20    -0.253481796499E+04   -0.19837E-01   -0.18808E-01  8512   0.412E-01    0.282E+00
RMM:  21    -0.253482167494E+04   -0.37099E-02   -0.12368E-01  9360   0.255E-01    0.169E+00
RMM:  22    -0.253482516073E+04   -0.34858E-02   -0.69401E-02  9472   0.167E-01    0.927E-01
RMM:  23    -0.253482908140E+04   -0.39207E-02   -0.43223E-02  8550   0.125E-01    0.691E-01
RMM:  24    -0.253483086281E+04   -0.17814E-02   -0.27573E-02  7498   0.111E-01    0.270E-01
RMM:  25    -0.253483221453E+04   -0.13517E-02   -0.19101E-02  7355   0.918E-02    0.153E-01
RMM:  26    -0.253483343849E+04   -0.12240E-02   -0.13368E-02  6771   0.658E-02    0.917E-02
RMM:  27    -0.253483462695E+04   -0.11885E-02   -0.12446E-02  5114   0.555E-02    0.442E-02
RMM:  28    -0.253483541443E+04   -0.78747E-03   -0.79656E-03  4913   0.519E-02    0.401E-02
RMM:  29    -0.253483597891E+04   -0.56449E-03   -0.57235E-03  4548   0.472E-02    0.477E-02
RMM:  30    -0.253483643071E+04   -0.45180E-03   -0.44821E-03  4531   0.427E-02    0.465E-02
RMM:  31    -0.253483678244E+04   -0.35173E-03   -0.34100E-03  4480   0.380E-02    0.278E-02
RMM:  32    -0.253483702438E+04   -0.24195E-03   -0.25734E-03  4486   0.324E-02    0.150E-02
RMM:  33    -0.253483722708E+04   -0.20270E-03   -0.21045E-03  4459   0.242E-02    0.862E-03
RMM:  34    -0.253483738329E+04   -0.15621E-03   -0.15971E-03  4379   0.231E-02    0.930E-03
RMM:  35    -0.253483751831E+04   -0.13502E-03   -0.13679E-03  4320   0.196E-02    0.917E-03
RMM:  36    -0.253483761814E+04   -0.99829E-04   -0.10040E-03  4251   0.193E-02    0.942E-03
RMM:  37    -0.253483769785E+04   -0.79714E-04   -0.80979E-04  4161   0.159E-02
   1 F= -.25348377E+04 E0= -.25347938E+04  d E =-.253484E+04  mag=   251.9982
       N       E                     dE             d eps       ncg     rms          rms(c)
DAV:   1    -0.253258798696E+04    0.22496E+01   -0.26886E+02  7040   0.137E+01    0.129E+01
RMM:   2    -0.253479208042E+04   -0.22041E+01   -0.15329E+01  7703   0.649E+00    0.943E+00
RMM:   3    -0.253561385056E+04   -0.82177E+00   -0.48654E+00  8576   0.203E+00    0.391E+00
RMM:   4    -0.253560994830E+04    0.39023E-02   -0.55979E-01  8980   0.890E-01    0.296E+00
RMM:   5    -0.253558597520E+04    0.23973E-01   -0.18260E-01  9345   0.338E-01    0.200E+00
RMM:   6    -0.253556579103E+04    0.20184E-01   -0.97170E-02  8701   0.286E-01    0.145E+00
RMM:   7    -0.253556635701E+04   -0.56598E-03   -0.69256E-02  8991   0.229E-01    0.798E-01
RMM:   8    -0.253556775151E+04   -0.13945E-02   -0.14902E-02  9651   0.109E-01    0.329E-01
RMM:   9    -0.253556768113E+04    0.70377E-04   -0.44155E-03  8289   0.633E-02    0.392E-01
RMM:  10    -0.253556765559E+04    0.25543E-04   -0.18519E-03  7127   0.386E-02    0.193E-01
RMM:  11    -0.253556770333E+04   -0.47744E-04   -0.13965E-03  6500   0.460E-02    0.119E-01
RMM:  12    -0.253556783118E+04   -0.12784E-03   -0.89366E-04  5799   0.365E-02    0.965E-02
RMM:  13    -0.253556786689E+04   -0.35709E-04   -0.24452E-04  3966   0.307E-02
   2 F= -.25355679E+04 E0= -.25355199E+04  d E =-.730169E+00  mag=   251.9999
       N       E                     dE             d eps       ncg     rms          rms(c)
DAV:   1    -0.253554662499E+04    0.21206E-01   -0.25660E+00  7040   0.138E+00    0.135E+00
RMM:   2    -0.253556818023E+04   -0.21555E-01   -0.15757E-01  7605   0.667E-01    0.104E+00
RMM:   3    -0.253557668405E+04   -0.85038E-02   -0.51171E-02  8576   0.208E-01    0.390E-01
RMM:   4    -0.253557655621E+04    0.12784E-03   -0.55624E-03  8122   0.871E-02    0.307E-01
RMM:   5    -0.253557627790E+04    0.27831E-03   -0.13575E-03  5830   0.371E-02    0.215E-01
RMM:   6    -0.253557598565E+04    0.29225E-03   -0.11877E-03  6071   0.426E-02    0.135E-01
RMM:   7    -0.253557597712E+04    0.85264E-05   -0.77013E-04  5470   0.392E-02
   3 F= -.25355760E+04 E0= -.25355283E+04  d E =-.738279E+00  mag=   252.0000
       N       E                     dE             d eps       ncg     rms          rms(c)
DAV:   1    -0.253544169853E+04    0.13429E+00   -0.56216E+01  7280   0.719E+00    0.507E+00
RMM:   2    -0.253565817707E+04   -0.21648E+00   -0.78669E+00  7709   0.408E+00    0.537E+00
RMM:   3    -0.253572927868E+04   -0.71102E-01   -0.45365E+00  8421   0.185E+00    0.207E+00
RMM:   4    -0.253577343108E+04   -0.44152E-01   -0.38841E-01  9182   0.635E-01    0.149E+00
RMM:   5    -0.253577566322E+04   -0.22321E-02   -0.11237E-01  8956   0.265E-01    0.114E+00
RMM:   6    -0.253577460017E+04    0.10630E-02   -0.40889E-02  8796   0.178E-01    0.791E-01
RMM:   7    -0.253577439868E+04    0.20149E-03   -0.96333E-03  9104   0.879E-02    0.329E-01
RMM:   8    -0.253577418148E+04    0.21719E-03   -0.35160E-03  7859   0.624E-02    0.242E-01
RMM:   9    -0.253577399829E+04    0.18319E-03   -0.15944E-03  6850   0.465E-02    0.134E-01
RMM:  10    -0.253577393401E+04    0.64286E-04   -0.95092E-04  5402   0.318E-02
   4 F= -.25357739E+04 E0= -.25357256E+04  d E =-.197957E+00  mag=   252.0053
       N       E                     dE             d eps       ncg     rms          rms(c)
DAV:   1    -0.253575930434E+04    0.14694E-01   -0.88170E+00  7280   0.285E+00    0.195E+00
RMM:   2    -0.253579251757E+04   -0.33213E-01   -0.54230E-01  7584   0.129E+00    0.193E+00
RMM:   3    -0.253581005925E+04   -0.17542E-01   -0.16269E-01  8778   0.406E-01    0.797E-01
RMM:   4    -0.253580967834E+04    0.38091E-03   -0.21979E-02  9089   0.146E-01    0.633E-01
RMM:   5    -0.253580888846E+04    0.78988E-03   -0.53601E-03  8739   0.656E-02    0.452E-01
RMM:   6    -0.253580828395E+04    0.60451E-03   -0.49185E-03  8131   0.689E-02    0.250E-01
RMM:   7    -0.253580836552E+04   -0.81574E-04   -0.13398E-03  6735   0.394E-02    0.138E-01
RMM:   8    -0.253580833164E+04    0.33882E-04   -0.31048E-04  4170   0.306E-02
   5 F= -.25358083E+04 E0= -.25357600E+04  d E =-.232355E+00  mag=   252.0008
       N       E                     dE             d eps       ncg     rms          rms(c)
DAV:   1    -0.253560893236E+04    0.19943E+00   -0.35010E+01  7280   0.569E+00    0.398E+00
RMM:   2    -0.253573998924E+04   -0.13106E+00   -0.21692E+00  7583   0.258E+00    0.387E+00
RMM:   3    -0.253580937792E+04   -0.69389E-01   -0.63900E-01  8789   0.804E-01    0.158E+00
RMM:   4    -0.253580716194E+04    0.22160E-02   -0.84694E-02  9072   0.287E-01    0.120E+00
RMM:   5    -0.253580406530E+04    0.30966E-02   -0.21408E-02  9207   0.128E-01    0.903E-01
RMM:   6    -0.253580208742E+04    0.19779E-02   -0.17012E-02  8588   0.121E-01    0.494E-01
RMM:   7    -0.253580251628E+04   -0.42886E-03   -0.54358E-03  8957   0.653E-02    0.243E-01
RMM:   8    -0.253580238733E+04    0.12895E-03   -0.11891E-03  6437   0.402E-02    0.132E-01
RMM:   9    -0.253580222877E+04    0.15856E-03   -0.43206E-04  4413   0.331E-02    0.876E-02
RMM:  10    -0.253580218247E+04    0.46302E-04   -0.88658E-04  5191   0.311E-02
   6 F= -.25358022E+04 E0= -.25357541E+04  d E =-.226205E+00  mag=   252.0001
       N       E                     dE             d eps       ncg     rms          rms(c)
DAV:   1    -0.253575983605E+04    0.42393E-01   -0.12566E+01  7360   0.341E+00    0.228E+00
RMM:   2    -0.253579914829E+04   -0.39312E-01   -0.69166E-01  7671   0.145E+00    0.217E+00
RMM:   3    -0.253582016275E+04   -0.21014E-01   -0.20017E-01  8754   0.453E-01    0.889E-01
RMM:   4    -0.253581921937E+04    0.94338E-03   -0.24572E-02  9013   0.162E-01    0.737E-01
RMM:   5    -0.253581825332E+04    0.96606E-03   -0.58956E-03  8714   0.701E-02    0.506E-01
RMM:   6    -0.253581760148E+04    0.65183E-03   -0.59508E-03  8129   0.784E-02    0.267E-01
RMM:   7    -0.253581775549E+04   -0.15401E-03   -0.15167E-03  7048   0.415E-02    0.155E-01
RMM:   8    -0.253581773388E+04    0.21613E-04   -0.28149E-04  4077   0.310E-02
   7 F= -.25358177E+04 E0= -.25357696E+04  d E =-.241757E+00  mag=   252.0000
       N       E                     dE             d eps       ncg     rms          rms(c)
DAV:   1    -0.253563767975E+04    0.18008E+00   -0.46712E+01  7280   0.682E+00    0.648E+00
RMM:   2    -0.253574404387E+04   -0.10636E+00   -0.34517E+00  7474   0.343E+00    0.553E+00
RMM:   3    -0.253587601174E+04   -0.13197E+00   -0.11490E+00  8559   0.108E+00    0.216E+00
RMM:   4    -0.253587105387E+04    0.49579E-02   -0.15902E-01  8850   0.444E-01    0.186E+00
RMM:   5    -0.253586625956E+04    0.47943E-02   -0.40226E-02  9449   0.173E-01    0.120E+00
RMM:   6    -0.253586159635E+04    0.46632E-02   -0.26456E-02  8338   0.177E-01    0.101E+00
RMM:   7    -0.253586225360E+04   -0.65726E-03   -0.12258E-02  8894   0.107E-01    0.270E-01
RMM:   8    -0.253586185997E+04    0.39364E-03   -0.26507E-03  7719   0.612E-02    0.259E-01
RMM:   9    -0.253586164142E+04    0.21855E-03   -0.14099E-03  6986   0.450E-02    0.120E-01
RMM:  10    -0.253586160236E+04    0.39056E-04   -0.14032E-03  6480   0.413E-02    0.117E-01
RMM:  11    -0.253586161888E+04   -0.16518E-04   -0.28192E-04  4129   0.279E-02
   8 F= -.25358616E+04 E0= -.25358124E+04  d E =-.438850E-01  mag=   252.0000
       N       E                     dE             d eps       ncg     rms          rms(c)
DAV:   1    -0.253585131213E+04    0.10290E-01   -0.41339E+00  7680   0.204E+00    0.196E+00
RMM:   2    -0.253585982073E+04   -0.85086E-02   -0.29727E-01  7483   0.101E+00    0.168E+00
RMM:   3    -0.253587139494E+04   -0.11574E-01   -0.99738E-02  8566   0.317E-01    0.623E-01
RMM:   4    -0.253587072443E+04    0.67051E-03   -0.13433E-02  8521   0.137E-01    0.510E-01
RMM:   5    -0.253587023464E+04    0.48979E-03   -0.32159E-03  8263   0.531E-02    0.328E-01
RMM:   6    -0.253586989613E+04    0.33850E-03   -0.28470E-03  7328   0.655E-02    0.206E-01
RMM:   7    -0.253586983636E+04    0.59768E-04   -0.60159E-04  5015   0.385E-02
   9 F= -.25358698E+04 E0= -.25358210E+04  d E =-.521025E-01  mag=   252.0000
       N       E                     dE             d eps       ncg     rms          rms(c)
DAV:   1    -0.253583597365E+04    0.33922E-01   -0.78531E+00  7440   0.273E+00    0.148E+00
RMM:   2    -0.253587723557E+04   -0.41262E-01   -0.33292E-01  7626   0.101E+00    0.956E-01
RMM:   3    -0.253589318885E+04   -0.15953E-01   -0.11278E-01  8606   0.322E-01    0.449E-01
RMM:   4    -0.253589293322E+04    0.25563E-03   -0.11830E-02  8370   0.127E-01    0.378E-01
RMM:   5    -0.253589254108E+04    0.39214E-03   -0.32418E-03  7810   0.511E-02    0.280E-01
RMM:   6    -0.253589216374E+04    0.37734E-03   -0.17746E-03  6967   0.508E-02    0.286E-01
RMM:   7    -0.253589210486E+04    0.58876E-04   -0.95600E-04  6015   0.429E-02
  10 F= -.25358921E+04 E0= -.25358413E+04  d E =-.222685E-01  mag=   252.0000
       N       E                     dE             d eps       ncg     rms          rms(c)
DAV:   1    -0.253570088404E+04    0.19128E+00   -0.27020E+01  7440   0.506E+00    0.279E+00
RMM:   2    -0.253584322506E+04   -0.14234E+00   -0.11467E+00  7627   0.186E+00    0.183E+00
RMM:   3    -0.253589937983E+04   -0.56155E-01   -0.39455E-01  8704   0.598E-01    0.837E-01
RMM:   4    -0.253589868498E+04    0.69485E-03   -0.42714E-02  8779   0.229E-01    0.746E-01
RMM:   5    -0.253589785638E+04    0.82861E-03   -0.11634E-02  9197   0.880E-02    0.564E-01
RMM:   6    -0.253589654187E+04    0.13145E-02   -0.58978E-03  8367   0.821E-02    0.486E-01
RMM:   7    -0.253589652796E+04    0.13905E-04   -0.40336E-03  8544   0.674E-02    0.399E-01
RMM:   8    -0.253589659637E+04   -0.68405E-04   -0.14233E-03  6704   0.411E-02    0.225E-01
RMM:   9    -0.253589661482E+04   -0.18457E-04   -0.35745E-04  4259   0.320E-02
  11 F= -.25358966E+04 E0= -.25358439E+04  d E =-.267785E-01  mag=   252.0000
       N       E                     dE             d eps       ncg     rms          rms(c)
DAV:   1    -0.253587854923E+04    0.18047E-01   -0.31371E+00  7680   0.172E+00    0.944E-01
RMM:   2    -0.253589479704E+04   -0.16248E-01   -0.13217E-01  7627   0.635E-01    0.626E-01
RMM:   3    -0.253590098285E+04   -0.61858E-02   -0.43766E-02  8492   0.202E-01    0.298E-01
RMM:   4    -0.253590088371E+04    0.99142E-04   -0.44963E-03  7670   0.831E-02    0.244E-01
RMM:   5    -0.253590069262E+04    0.19109E-03   -0.10097E-03  5639   0.356E-02    0.176E-01
RMM:   6    -0.253590051387E+04    0.17875E-03   -0.68338E-04  5380   0.374E-02    0.139E-01
RMM:   7    -0.253590050998E+04    0.38834E-05   -0.47261E-04  4746   0.356E-02
  12 F= -.25359005E+04 E0= -.25358480E+04  d E =-.306736E-01  mag=   252.0000
       N       E                     dE             d eps       ncg     rms          rms(c)
DAV:   1    -0.253585421631E+04    0.46298E-01   -0.70434E+00  8320   0.277E+00    0.235E+00
RMM:   2    -0.253588677900E+04   -0.32563E-01   -0.43901E-01  7493   0.125E+00    0.193E+00
RMM:   3    -0.253590892352E+04   -0.22145E-01   -0.16764E-01  8574   0.401E-01    0.741E-01
RMM:   4    -0.253590879560E+04    0.12792E-03   -0.21745E-02  8661   0.171E-01    0.795E-01
RMM:   5    -0.253590826573E+04    0.52987E-03   -0.55721E-03  8433   0.700E-02    0.471E-01
RMM:   6    -0.253590778572E+04    0.48001E-03   -0.33710E-03  7761   0.715E-02    0.319E-01
RMM:   7    -0.253590782880E+04   -0.43084E-04   -0.16016E-03  7160   0.479E-02    0.226E-01
RMM:   8    -0.253590785354E+04   -0.24739E-04   -0.35606E-04  4289   0.291E-02
  13 F= -.25359079E+04 E0= -.25358561E+04  d E =-.734356E-02  mag=   252.0000
       N       E                     dE             d eps       ncg     rms          rms(c)
DAV:   1    -0.253590418143E+04    0.36474E-02   -0.85352E-01  8400   0.964E-01    0.838E-01
RMM:   2    -0.253590804606E+04   -0.38646E-02   -0.52690E-02  7498   0.437E-01    0.802E-01
RMM:   3    -0.253591045582E+04   -0.24098E-02   -0.19309E-02  8439   0.141E-01    0.339E-01
RMM:   4    -0.253591043031E+04    0.25510E-04   -0.24506E-03  7068   0.609E-02    0.269E-01
RMM:   5    -0.253591025242E+04    0.17789E-03   -0.47175E-04  4680   0.324E-02    0.168E-01
RMM:   6    -0.253591016688E+04    0.85540E-04   -0.48508E-04  4901   0.335E-02
  14 F= -.25359102E+04 E0= -.25358581E+04  d E =-.965689E-02  mag=   252.0000
       N       E                     dE             d eps       ncg     rms          rms(c)
DAV:   1    -0.253591480804E+04   -0.45556E-02   -0.29362E+00  8720   0.208E+00    0.130E+00
RMM:   2    -0.253591458686E+04    0.22117E-03   -0.16227E-01  7587   0.741E-01    0.122E+00
RMM:   3    -0.253591839515E+04   -0.38083E-02   -0.47193E-02  8677   0.228E-01    0.534E-01
RMM:   4    -0.253591770283E+04    0.69233E-03   -0.62971E-03  8519   0.981E-02    0.530E-01
RMM:   5    -0.253591749886E+04    0.20397E-03   -0.20652E-03  7507   0.505E-02    0.363E-01
RMM:   6    -0.253591728816E+04    0.21070E-03   -0.10990E-03  6424   0.464E-02    0.254E-01
RMM:   7    -0.253591728551E+04    0.26501E-05   -0.86585E-04  5868   0.384E-02
  15 F= -.25359173E+04 E0= -.25358666E+04  d E =-.711863E-02  mag=   252.0000
       N       E                     dE             d eps       ncg     rms          rms(c)
DAV:   1    -0.253591510314E+04    0.21850E-02   -0.25288E+00  8720   0.194E+00    0.123E+00
RMM:   2    -0.253591468419E+04    0.41895E-03   -0.13973E-01  7673   0.664E-01    0.114E+00
RMM:   3    -0.253591802784E+04   -0.33436E-02   -0.41008E-02  8786   0.204E-01    0.503E-01
RMM:   4    -0.253591748526E+04    0.54258E-03   -0.56996E-03  8619   0.908E-02    0.465E-01
RMM:   5    -0.253591739688E+04    0.88385E-04   -0.19490E-03  7368   0.467E-02    0.367E-01
RMM:   6    -0.253591726859E+04    0.12828E-03   -0.10719E-03  6492   0.456E-02    0.252E-01
RMM:   7    -0.253591724856E+04    0.20033E-04   -0.69669E-04  5424   0.379E-02
  16 F= -.25359172E+04 E0= -.25358690E+04  d E =-.708168E-02  mag=   252.0000
       N       E                     dE             d eps       ncg     rms          rms(c)
DAV:   1    -0.253594104952E+04   -0.23781E-01   -0.17533E+00  9440   0.154E+00    0.150E+00
RMM:   2    -0.253592592228E+04    0.15127E-01   -0.10708E-01  8173   0.456E-01    0.856E-01
RMM:   3    -0.253592719431E+04   -0.12720E-02   -0.34622E-02  8337   0.188E-01    0.526E-01
RMM:   4    -0.253592662145E+04    0.57285E-03   -0.59000E-03  7698   0.122E-01    0.440E-01
RMM:   5    -0.253592649836E+04    0.12309E-03   -0.18731E-03  7153   0.530E-02    0.199E-01
RMM:   6    -0.253592647437E+04    0.23990E-04   -0.72167E-04  5261   0.435E-02
  17 F= -.25359265E+04 E0= -.25358800E+04  d E =-.922581E-02  mag=   252.0000
       N       E                     dE             d eps       ncg     rms          rms(c)
DAV:   1    -0.253592744325E+04   -0.94489E-03   -0.95356E-02  9520   0.367E-01    0.419E-01
RMM:   2    -0.253592668055E+04    0.76269E-03   -0.69624E-03  8068   0.122E-01    0.437E-01
RMM:   3    -0.253592675088E+04   -0.70323E-04   -0.18629E-03  6895   0.473E-02    0.184E-01
RMM:   4    -0.253592670509E+04    0.45785E-04   -0.44346E-04  4681   0.363E-02
  18 F= -.25359267E+04 E0= -.25358806E+04  d E =-.945653E-02  mag=   252.0000
       N       E                     dE             d eps       ncg     rms          rms(c)
DAV:   1    -0.253592755810E+04   -0.80722E-03   -0.24922E-01  7840   0.613E-01    0.247E-01
RMM:   2    -0.253592840918E+04   -0.85108E-03   -0.12464E-02  7858   0.188E-01    0.249E-01
RMM:   3    -0.253592872431E+04   -0.31514E-03   -0.33505E-03  7762   0.571E-02    0.139E-01
RMM:   4    -0.253592869411E+04    0.30199E-04   -0.34793E-04  4172   0.304E-02
  19 F= -.25359287E+04 E0= -.25358838E+04  d E =-.198902E-02  mag=   252.0000
       N       E                     dE             d eps       ncg     rms          rms(c)
DAV:   1    -0.253592316012E+04    0.55642E-02   -0.22410E+00  7680   0.183E+00    0.678E-01
RMM:   2    -0.253593020727E+04   -0.70471E-02   -0.10701E-01  7830   0.550E-01    0.477E-01
RMM:   3    -0.253593310204E+04   -0.28948E-02   -0.32040E-02  8733   0.163E-01    0.317E-01
RMM:   4    -0.253593276143E+04    0.34061E-03   -0.38689E-03  7519   0.740E-02    0.379E-01
RMM:   5    -0.253593266647E+04    0.94960E-04   -0.12088E-03  6314   0.409E-02    0.245E-01
RMM:   6    -0.253593265566E+04    0.10807E-04   -0.86272E-04  5878   0.411E-02
  20 F= -.25359327E+04 E0= -.25358922E+04  d E =-.595057E-02  mag=   252.0000
       N       E                     dE             d eps       ncg     rms          rms(c)
DAV:   1    -0.253589475908E+04    0.37907E-01   -0.89270E+00  7520   0.366E+00    0.134E+00
RMM:   2    -0.253592264179E+04   -0.27883E-01   -0.42644E-01  7845   0.109E+00    0.928E-01
RMM:   3    -0.253593386835E+04   -0.11227E-01   -0.12347E-01  8740   0.321E-01    0.552E-01
RMM:   4    -0.253593239747E+04    0.14709E-02   -0.15633E-02  8513   0.141E-01    0.511E-01
RMM:   5    -0.253593203910E+04    0.35838E-03   -0.57536E-03  8406   0.743E-02    0.366E-01
RMM:   6    -0.253593190273E+04    0.13636E-03   -0.24405E-03  7962   0.506E-02    0.259E-01
RMM:   7    -0.253593201529E+04   -0.11255E-03   -0.11847E-03  6514   0.401E-02    0.141E-01
RMM:   8    -0.253593207205E+04   -0.56760E-04   -0.35974E-04  4268   0.317E-02
  21 F= -.25359321E+04 E0= -.25359005E+04  d E =-.536696E-02  mag=   252.0000
       N       E                     dE             d eps       ncg     rms          rms(c)
DAV:   1    -0.253592696416E+04    0.50511E-02   -0.18521E+00  7840   0.167E+00    0.609E-01
RMM:   2    -0.253593248567E+04   -0.55215E-02   -0.85936E-02  7807   0.496E-01    0.412E-01
RMM:   3    -0.253593453681E+04   -0.20511E-02   -0.23998E-02  8492   0.147E-01    0.252E-01
RMM:   4    -0.253593409127E+04    0.44555E-03   -0.25791E-03  6980   0.652E-02    0.222E-01
RMM:   5    -0.253593393258E+04    0.15868E-03   -0.84063E-04  5559   0.385E-02    0.133E-01
RMM:   6    -0.253593390707E+04    0.25512E-04   -0.48276E-04  4683   0.338E-02
  22 F= -.25359339E+04 E0= -.25358991E+04  d E =-.720198E-02  mag=   252.0000
       N       E                     dE             d eps       ncg     rms          rms(c)
DAV:   1    -0.253593251759E+04    0.14150E-02   -0.43661E-01  8320   0.670E-01    0.601E-01
RMM:   2    -0.253593542689E+04   -0.29093E-02   -0.25197E-02  7531   0.291E-01    0.448E-01
RMM:   3    -0.253593690221E+04   -0.14753E-02   -0.92899E-03  8280   0.911E-02    0.168E-01
RMM:   4    -0.253593684928E+04    0.52928E-04   -0.10263E-03  5358   0.488E-02    0.141E-01
RMM:   5    -0.253593680997E+04    0.39312E-04   -0.30837E-04  4233   0.267E-02
  23 F= -.25359368E+04 E0= -.25359011E+04  d E =-.290290E-02  mag=   252.0000
       N       E                     dE             d eps       ncg     rms          rms(c)
DAV:   1    -0.253593647871E+04    0.37057E-03   -0.67942E-02  8320   0.265E-01    0.260E-01
RMM:   2    -0.253593692702E+04   -0.44831E-03   -0.43419E-03  6968   0.122E-01    0.252E-01
RMM:   3    -0.253593713420E+04   -0.20718E-03   -0.14045E-03  5722   0.408E-02    0.102E-01
RMM:   4    -0.253593713519E+04   -0.99363E-06   -0.24228E-04  4051   0.300E-02
  24 F= -.25359371E+04 E0= -.25359011E+04  d E =-.322812E-02  mag=   252.0000
       N       E                     dE             d eps       ncg     rms          rms(c)
DAV:   1    -0.253593717773E+04   -0.43529E-04   -0.14655E-01  7920   0.401E-01    0.180E-01
RMM:   2    -0.253593768095E+04   -0.50323E-03   -0.70213E-03  7648   0.150E-01    0.188E-01
RMM:   3    -0.253593788373E+04   -0.20277E-03   -0.20096E-03  6843   0.474E-02    0.918E-02
RMM:   4    -0.253593787468E+04    0.90438E-05   -0.20159E-04  3922   0.260E-02
  25 F= -.25359379E+04 E0= -.25359014E+04  d E =-.739491E-03  mag=   252.0000
       N       E                     dE             d eps       ncg     rms          rms(c)
DAV:   1    -0.253593795460E+04   -0.70871E-04   -0.10952E-01  8080   0.345E-01    0.155E-01
RMM:   2    -0.253593825479E+04   -0.30019E-03   -0.47504E-03  7515   0.120E-01    0.152E-01
RMM:   3    -0.253593835618E+04   -0.10138E-03   -0.11106E-03  6073   0.386E-02    0.851E-02
RMM:   4    -0.253593834473E+04    0.11446E-04   -0.16700E-04  3859   0.255E-02
  26 F= -.25359383E+04 E0= -.25359014E+04  d E =-.120954E-02  mag=   252.0000
       N       E                     dE             d eps       ncg     rms          rms(c)
DAV:   1    -0.253593892470E+04   -0.56853E-03   -0.14812E-01  8560   0.415E-01    0.322E-01
RMM:   2    -0.253593869990E+04    0.22481E-03   -0.89433E-03  7601   0.172E-01    0.296E-01
RMM:   3    -0.253593887171E+04   -0.17181E-03   -0.25437E-03  7333   0.537E-02    0.120E-01
RMM:   4    -0.253593882851E+04    0.43200E-04   -0.28280E-04  4050   0.324E-02
  27 F= -.25359388E+04 E0= -.25359016E+04  d E =-.483780E-03  mag=   252.0000
       N       E                     dE             d eps       ncg     rms          rms(c)
DAV:   1    -0.253593864873E+04    0.22298E-03   -0.13152E+00  8320   0.124E+00    0.953E-01
RMM:   2    -0.253593679224E+04    0.18565E-02   -0.81523E-02  7605   0.520E-01    0.962E-01
RMM:   3    -0.253593849405E+04   -0.17018E-02   -0.23485E-02  8599   0.159E-01    0.414E-01
RMM:   4    -0.253593813020E+04    0.36385E-03   -0.34407E-03  8078   0.736E-02    0.310E-01
RMM:   5    -0.253593799341E+04    0.13678E-03   -0.11878E-03  6646   0.445E-02    0.241E-01
RMM:   6    -0.253593804392E+04   -0.50509E-04   -0.10030E-03  5831   0.387E-02    0.939E-02
RMM:   7    -0.253593806834E+04   -0.24413E-04   -0.29369E-04  4223   0.311E-02
  28 F= -.25359381E+04 E0= -.25359002E+04  d E =0.276395E-03  mag=   252.0000
