       N       E                     dE             d eps       ncg     rms          rms(c)
DAV:   1     0.400827534972E+05    0.40083E+05   -0.85805E+05  6800   0.262E+03
DAV:   2     0.144563445768E+05   -0.25626E+05   -0.22923E+05  6720   0.687E+02
DAV:   3     0.341585131055E+04   -0.11040E+05   -0.99157E+04  7040   0.356E+02
DAV:   4    -0.166903403938E+04   -0.50849E+04   -0.47294E+04  9680   0.199E+02
DAV:   5    -0.284301604416E+04   -0.11740E+04   -0.11391E+04 11200   0.105E+02    0.217E+02
RMM:   6    -0.250883475790E+04    0.33418E+03   -0.77569E+03  8855   0.109E+02    0.341E+02
RMM:   7    -0.257108140463E+04   -0.62247E+02   -0.17750E+03  9318   0.369E+01    0.185E+02
RMM:   8    -0.247032272805E+04    0.10076E+03   -0.11566E+03  7118   0.562E+01    0.960E+01
RMM:   9    -0.254294480618E+04   -0.72622E+02   -0.72558E+02  8655   0.195E+01    0.699E+01
RMM:  10    -0.254217474680E+04    0.77006E+00   -0.16088E+02  8332   0.130E+01    0.386E+01
RMM:  11    -0.253601207177E+04    0.61627E+01   -0.99292E+01  9211   0.841E+00    0.241E+01
RMM:  12    -0.253555737623E+04    0.45470E+00   -0.32941E+01  9676   0.454E+00    0.209E+01
RMM:  13    -0.253539375922E+04    0.16362E+00   -0.95690E+00 10269   0.186E+00    0.196E+01
RMM:  14    -0.253509345858E+04    0.30030E+00   -0.38021E+00  9138   0.165E+00    0.180E+01
RMM:  15    -0.253532886986E+04   -0.23541E+00   -0.64552E+00  8931   0.213E+00    0.148E+01
RMM:  16    -0.253481020018E+04    0.51867E+00   -0.15033E+00  8842   0.107E+00    0.120E+01
RMM:  17    -0.253439548576E+04    0.41471E+00   -0.13088E+00  8966   0.908E-01    0.988E+00
RMM:  18    -0.253417171146E+04    0.22377E+00   -0.26156E+00  9091   0.129E+00    0.494E+00
RMM:  19    -0.253419027277E+04   -0.18561E-01   -0.70841E-01  9367   0.779E-01    0.319E+00
RMM:  20    -0.253419845085E+04   -0.81781E-02   -0.18355E-01  8842   0.343E-01    0.250E+00
RMM:  21    -0.253420920901E+04   -0.10758E-01   -0.84997E-02  9118   0.251E-01    0.188E+00
RMM:  22    -0.253421176939E+04   -0.25604E-02   -0.54648E-02  9306   0.147E-01    0.111E+00
RMM:  23    -0.253421092656E+04    0.84283E-03   -0.37173E-02  8814   0.149E-01    0.615E-01
RMM:  24    -0.253421333058E+04   -0.24040E-02   -0.36491E-02  8871   0.117E-01    0.279E-01
RMM:  25    -0.253421477507E+04   -0.14445E-02   -0.17806E-02  7407   0.103E-01    0.138E-01
RMM:  26    -0.253421597408E+04   -0.11990E-02   -0.14470E-02  5337   0.670E-02    0.926E-02
RMM:  27    -0.253421664314E+04   -0.66906E-03   -0.76069E-03  5391   0.575E-02    0.540E-02
RMM:  28    -0.253421767687E+04   -0.10337E-02   -0.10695E-02  5289   0.552E-02    0.322E-02
RMM:  29    -0.253421811868E+04   -0.44181E-03   -0.43233E-03  5005   0.529E-02    0.266E-02
RMM:  30    -0.253421867396E+04   -0.55528E-03   -0.56162E-03  4486   0.444E-02    0.268E-02
RMM:  31    -0.253421897380E+04   -0.29984E-03   -0.29865E-03  4396   0.418E-02    0.230E-02
RMM:  32    -0.253421937224E+04   -0.39844E-03   -0.41026E-03  4422   0.346E-02    0.140E-02
RMM:  33    -0.253421955738E+04   -0.18514E-03   -0.17873E-03  4354   0.300E-02    0.121E-02
RMM:  34    -0.253421975980E+04   -0.20242E-03   -0.20273E-03  4322   0.266E-02    0.111E-02
RMM:  35    -0.253421986573E+04   -0.10593E-03   -0.10540E-03  4292   0.221E-02    0.948E-03
RMM:  36    -0.253422000258E+04   -0.13685E-03   -0.14013E-03  4286   0.205E-02    0.817E-03
RMM:  37    -0.253422006862E+04   -0.66049E-04   -0.65909E-04  4215   0.183E-02
   1 F= -.25342201E+04 E0= -.25341794E+04  d E =-.253422E+04  mag=   250.9974
       N       E                     dE             d eps       ncg     rms          rms(c)
DAV:   1    -0.253144106929E+04    0.27789E+01   -0.33611E+02  7200   0.157E+01    0.149E+01
RMM:   2    -0.253413333521E+04   -0.26923E+01   -0.19429E+01  7679   0.748E+00    0.111E+01
RMM:   3    -0.253518711523E+04   -0.10538E+01   -0.62539E+00  8530   0.230E+00    0.431E+00
RMM:   4    -0.253517559770E+04    0.11518E-01   -0.69614E-01  8856   0.104E+00    0.348E+00
RMM:   5    -0.253514947722E+04    0.26120E-01   -0.24027E-01  9515   0.388E-01    0.238E+00
RMM:   6    -0.253512244088E+04    0.27036E-01   -0.11941E-01  8722   0.325E-01    0.164E+00
RMM:   7    -0.253512367287E+04   -0.12320E-02   -0.96533E-02  8919   0.268E-01    0.960E-01
RMM:   8    -0.253512508097E+04   -0.14081E-02   -0.18710E-02  9789   0.128E-01    0.398E-01
RMM:   9    -0.253512485941E+04    0.22156E-03   -0.59026E-03  8750   0.720E-02    0.416E-01
RMM:  10    -0.253512478646E+04    0.72944E-04   -0.30291E-03  8184   0.457E-02    0.216E-01
RMM:  11    -0.253512485720E+04   -0.70735E-04   -0.16867E-03  6933   0.498E-02    0.136E-01
RMM:  12    -0.253512503209E+04   -0.17489E-03   -0.10552E-03  6131   0.372E-02    0.102E-01
RMM:  13    -0.253512507529E+04   -0.43204E-04   -0.22228E-04  3926   0.322E-02
   2 F= -.25351251E+04 E0= -.25350794E+04  d E =-.905007E+00  mag=   250.9999
       N       E                     dE             d eps       ncg     rms          rms(c)
DAV:   1    -0.253509919605E+04    0.25836E-01   -0.32232E+00  7520   0.158E+00    0.154E+00
RMM:   2    -0.253512552971E+04   -0.26334E-01   -0.19693E-01  7599   0.764E-01    0.118E+00
RMM:   3    -0.253513639646E+04   -0.10867E-01   -0.65355E-02  8574   0.236E-01    0.423E-01
RMM:   4    -0.253513614845E+04    0.24801E-03   -0.68946E-03  8312   0.102E-01    0.360E-01
RMM:   5    -0.253513585990E+04    0.28855E-03   -0.19986E-03  6706   0.414E-02    0.256E-01
RMM:   6    -0.253513548872E+04    0.37119E-03   -0.12925E-03  6202   0.474E-02    0.160E-01
RMM:   7    -0.253513546325E+04    0.25466E-04   -0.11271E-03  6254   0.417E-02    0.165E-01
RMM:   8    -0.253513545747E+04    0.57841E-05   -0.20171E-04  3915   0.280E-02
   3 F= -.25351355E+04 E0= -.25350900E+04  d E =-.915389E+00  mag=   251.0000
       N       E                     dE             d eps       ncg     rms          rms(c)
DAV:   1    -0.253500451288E+04    0.13095E+00   -0.74368E+01  7360   0.836E+00    0.583E+00
RMM:   2    -0.253526857649E+04   -0.26406E+00   -0.45158E+00  7568   0.382E+00    0.584E+00
RMM:   3    -0.253540410235E+04   -0.13553E+00   -0.12658E+00  8726   0.118E+00    0.238E+00
RMM:   4    -0.253539790270E+04    0.61996E-02   -0.16603E-01  9017   0.422E-01    0.171E+00
RMM:   5    -0.253538946416E+04    0.84385E-02   -0.45040E-02  8952   0.201E-01    0.130E+00
RMM:   6    -0.253538724703E+04    0.22171E-02   -0.34859E-02  8647   0.169E-01    0.611E-01
RMM:   7    -0.253538809980E+04   -0.85277E-03   -0.10245E-02  9685   0.905E-02    0.348E-01
RMM:   8    -0.253538768116E+04    0.41864E-03   -0.20955E-03  7469   0.484E-02    0.174E-01
RMM:   9    -0.253538740701E+04    0.27415E-03   -0.13183E-03  6023   0.381E-02    0.132E-01
RMM:  10    -0.253538735119E+04    0.55819E-04   -0.10017E-03  6068   0.351E-02    0.115E-01
RMM:  11    -0.253538737305E+04   -0.21861E-04   -0.38881E-04  4362   0.297E-02
   4 F= -.25353874E+04 E0= -.25353409E+04  d E =-.251916E+00  mag=   251.0000
       N       E                     dE             d eps       ncg     rms          rms(c)
DAV:   1    -0.253537454265E+04    0.12809E-01   -0.12037E+01  7600   0.337E+00    0.229E+00
RMM:   2    -0.253541393177E+04   -0.39389E-01   -0.69203E-01  7582   0.150E+00    0.228E+00
RMM:   3    -0.253543469147E+04   -0.20760E-01   -0.19519E-01  8780   0.464E-01    0.931E-01
RMM:   4    -0.253543368379E+04    0.10077E-02   -0.25773E-02  9197   0.163E-01    0.686E-01
RMM:   5    -0.253543245924E+04    0.12245E-02   -0.64712E-03  8964   0.761E-02    0.514E-01
RMM:   6    -0.253543194624E+04    0.51300E-03   -0.57901E-03  8284   0.727E-02    0.258E-01
RMM:   7    -0.253543203203E+04   -0.85786E-04   -0.13448E-03  6909   0.391E-02    0.134E-01
RMM:   8    -0.253543197144E+04    0.60589E-04   -0.25916E-04  4007   0.326E-02
   5 F= -.25354320E+04 E0= -.25353856E+04  d E =-.296514E+00  mag=   251.0000
       N       E                     dE             d eps       ncg     rms          rms(c)
DAV:   1    -0.253518506975E+04    0.24696E+00   -0.47849E+01  7360   0.672E+00    0.467E+00
RMM:   2    -0.253534751591E+04   -0.16245E+00   -0.28489E+00  7568   0.301E+00    0.463E+00
RMM:   3    -0.253543403099E+04   -0.86515E-01   -0.81014E-01  8806   0.933E-01    0.190E+00
RMM:   4    -0.253543032099E+04    0.37100E-02   -0.10739E-01  9104   0.328E-01    0.140E+00
RMM:   5    -0.253542565600E+04    0.46650E-02   -0.26834E-02  9218   0.151E-01    0.105E+00
RMM:   6    -0.253542356292E+04    0.20931E-02   -0.23028E-02  8536   0.142E-01    0.536E-01
RMM:   7    -0.253542412262E+04   -0.55970E-03   -0.70882E-03  9492   0.751E-02    0.287E-01
RMM:   8    -0.253542387425E+04    0.24837E-03   -0.13606E-03  6717   0.412E-02    0.151E-01
RMM:   9    -0.253542366590E+04    0.20834E-03   -0.64926E-04  4927   0.364E-02    0.989E-02
RMM:  10    -0.253542361917E+04    0.46735E-04   -0.10244E-03  5768   0.321E-02    0.738E-02
RMM:  11    -0.253542363204E+04   -0.12878E-04   -0.23984E-04  3946   0.297E-02
   6 F= -.25354236E+04 E0= -.25353779E+04  d E =-.288175E+00  mag=   251.0000
       N       E                     dE             d eps       ncg     rms          rms(c)
DAV:   1    -0.253536181916E+04    0.61800E-01   -0.17944E+01  7440   0.412E+00    0.279E+00
RMM:   2    -0.253541718628E+04   -0.55367E-01   -0.10224E+00  7614   0.182E+00    0.274E+00
RMM:   3    -0.253544763223E+04   -0.30446E-01   -0.28640E-01  8743   0.562E-01    0.110E+00
RMM:   4    -0.253544607525E+04    0.15570E-02   -0.35004E-02  8900   0.198E-01    0.793E-01
RMM:   5    -0.253544420928E+04    0.18660E-02   -0.95749E-03  8486   0.979E-02    0.589E-01
RMM:   6    -0.253544398610E+04    0.22318E-03   -0.74346E-03  8449   0.826E-02    0.259E-01
RMM:   7    -0.253544416858E+04   -0.18248E-03   -0.17008E-03  7364   0.437E-02    0.168E-01
RMM:   8    -0.253544410490E+04    0.63676E-04   -0.27565E-04  4026   0.340E-02
   7 F= -.25354441E+04 E0= -.25353980E+04  d E =-.308647E+00  mag=   251.0000
       N       E                     dE             d eps       ncg     rms          rms(c)
DAV:   1    -0.253516077425E+04    0.28339E+00   -0.62302E+01  7200   0.789E+00    0.745E+00
RMM:   2    -0.253534003438E+04   -0.17926E+00   -0.46794E+00  7507   0.404E+00    0.638E+00
RMM:   3    -0.253552629784E+04   -0.18626E+00   -0.15811E+00  8572   0.125E+00    0.240E+00
RMM:   4    -0.253552111698E+04    0.51809E-02   -0.21860E-01  8942   0.507E-01    0.198E+00
RMM:   5    -0.253551429648E+04    0.68205E-02   -0.53500E-02  9687   0.193E-01    0.132E+00
RMM:   6    -0.253550894065E+04    0.53558E-02   -0.35864E-02  8445   0.196E-01    0.976E-01
RMM:   7    -0.253550964002E+04   -0.69938E-03   -0.14291E-02  9017   0.120E-01    0.399E-01
RMM:   8    -0.253550910336E+04    0.53666E-03   -0.29231E-03  8154   0.581E-02    0.251E-01
RMM:   9    -0.253356971266E+04    0.19394E+01   -0.48675E+01  7695   0.561E+00    0.304E-01
RMM:  10    -0.253506295683E+04   -0.14932E+01   -0.67522E+00  4642   0.871E-01    0.125E-01
RMM:  11    -0.253536168675E+04   -0.29873E+00   -0.16551E+00  4583   0.565E-01    0.996E-02
RMM:  12    -0.253545078046E+04   -0.89094E-01   -0.53512E-01  4110   0.375E-01    0.718E-02
RMM:  13    -0.253548948051E+04   -0.38700E-01   -0.27974E-01  3984   0.235E-01    0.473E-02
RMM:  14    -0.253550271234E+04   -0.13232E-01   -0.10225E-01  3921   0.140E-01    0.365E-02
RMM:  15    -0.253550737866E+04   -0.46663E-02   -0.38880E-02  3932   0.801E-02    0.321E-02
RMM:  16    -0.253550847493E+04   -0.10963E-02   -0.93992E-03  3908   0.430E-02    0.283E-02
RMM:  17    -0.253550874850E+04   -0.27357E-03   -0.25914E-03  3911   0.247E-02    0.238E-02
RMM:  18    -0.253550880048E+04   -0.51974E-04   -0.53389E-04  3898   0.161E-02
   8 F= -.25355088E+04 E0= -.25354629E+04  d E =-.646956E-01  mag=   251.0000
       N       E                     dE             d eps       ncg     rms          rms(c)
DAV:   1    -0.253549539260E+04    0.13356E-01   -0.44216E+00  7680   0.211E+00    0.199E+00
RMM:   2    -0.253550664990E+04   -0.11257E-01   -0.30209E-01  7528   0.105E+00    0.171E+00
RMM:   3    -0.253551900541E+04   -0.12356E-01   -0.10305E-01  8586   0.324E-01    0.624E-01
RMM:   4    -0.253551840872E+04    0.59669E-03   -0.14440E-02  8620   0.139E-01    0.512E-01
RMM:   5    -0.253551794010E+04    0.46862E-03   -0.34342E-03  8496   0.539E-02    0.340E-01
RMM:   6    -0.253551756675E+04    0.37335E-03   -0.23737E-03  7140   0.590E-02    0.201E-01
RMM:   7    -0.253551753762E+04    0.29124E-04   -0.54567E-04  4882   0.343E-02
   9 F= -.25355175E+04 E0= -.25354715E+04  d E =-.734327E-01  mag=   251.0000
       N       E                     dE             d eps       ncg     rms          rms(c)
DAV:   1    -0.253546684297E+04    0.50724E-01   -0.11224E+01  7200   0.313E+00    0.178E+00
RMM:   2    -0.253552742689E+04   -0.60584E-01   -0.46990E-01  7656   0.119E+00    0.116E+00
RMM:   3    -0.253554910288E+04   -0.21676E-01   -0.14674E-01  8609   0.375E-01    0.514E-01
RMM:   4    -0.253554863045E+04    0.47244E-03   -0.14403E-02  8503   0.150E-01    0.449E-01
RMM:   5    -0.253554827026E+04    0.36019E-03   -0.45565E-03  8322   0.554E-02    0.339E-01
RMM:   6    -0.253554766585E+04    0.60441E-03   -0.20740E-03  7282   0.550E-02    0.332E-01
RMM:   7    -0.253554751914E+04    0.14670E-03   -0.16099E-03  7253   0.490E-02    0.176E-01
RMM:   8    -0.253554754450E+04   -0.25360E-04   -0.65952E-04  5383   0.348E-02
  10 F= -.25355475E+04 E0= -.25355005E+04  d E =-.300069E-01  mag=   251.0000
       N       E                     dE             d eps       ncg     rms          rms(c)
DAV:   1    -0.253529512000E+04    0.25240E+00   -0.35724E+01  7120   0.559E+00    0.322E+00
RMM:   2    -0.253548945720E+04   -0.19434E+00   -0.14997E+00  7647   0.212E+00    0.213E+00
RMM:   3    -0.253555998155E+04   -0.70524E-01   -0.47600E-01  8667   0.673E-01    0.945E-01
RMM:   4    -0.253555906930E+04    0.91225E-03   -0.48908E-02  8877   0.266E-01    0.822E-01
RMM:   5    -0.253555813784E+04    0.93146E-03   -0.15200E-02  9417   0.942E-02    0.621E-01
RMM:   6    -0.253555623347E+04    0.19044E-02   -0.67261E-03  8219   0.920E-02    0.568E-01
RMM:   7    -0.253555591737E+04    0.31610E-03   -0.55830E-03  8679   0.792E-02    0.357E-01
RMM:   8    -0.253555603115E+04   -0.11379E-03   -0.21104E-03  7417   0.458E-02    0.266E-01
RMM:   9    -0.253555601434E+04    0.16812E-04   -0.38426E-04  4486   0.322E-02
  11 F= -.25355560E+04 E0= -.25355089E+04  d E =-.384767E-01  mag=   251.0000
       N       E                     dE             d eps       ncg     rms          rms(c)
DAV:   1    -0.253553610675E+04    0.19924E-01   -0.33436E+00  7680   0.170E+00    0.976E-01
RMM:   2    -0.253555381944E+04   -0.17713E-01   -0.13820E-01  7662   0.641E-01    0.679E-01
RMM:   3    -0.253555992055E+04   -0.61011E-02   -0.41310E-02  8541   0.202E-01    0.315E-01
RMM:   4    -0.253555984964E+04    0.70904E-04   -0.41883E-03  7794   0.847E-02    0.241E-01
RMM:   5    -0.253555967196E+04    0.17768E-03   -0.10633E-03  5856   0.351E-02    0.178E-01
RMM:   6    -0.253555947322E+04    0.19874E-03   -0.53727E-04  5025   0.348E-02    0.157E-01
RMM:   7    -0.253555944468E+04    0.28543E-04   -0.57586E-04  5265   0.361E-02
  12 F= -.25355594E+04 E0= -.25355121E+04  d E =-.419071E-01  mag=   251.0000
       N       E                     dE             d eps       ncg     rms          rms(c)
DAV:   1    -0.253552075026E+04    0.38723E-01   -0.11345E+01  7600   0.330E+00    0.130E+00
RMM:   2    -0.253556562441E+04   -0.44874E-01   -0.49807E-01  8024   0.119E+00    0.945E-01
RMM:   3    -0.253557897574E+04   -0.13351E-01   -0.12003E-01  8670   0.339E-01    0.489E-01
RMM:   4    -0.253557827394E+04    0.70179E-03   -0.11990E-02  8484   0.140E-01    0.549E-01
RMM:   5    -0.253557818255E+04    0.91398E-04   -0.40160E-03  8303   0.575E-02    0.371E-01
RMM:   6    -0.253557774512E+04    0.43742E-03   -0.20646E-03  7315   0.558E-02    0.296E-01
RMM:   7    -0.253557772429E+04    0.20828E-04   -0.18122E-03  7636   0.476E-02    0.179E-01
RMM:   8    -0.253557782331E+04   -0.99014E-04   -0.58429E-04  5289   0.337E-02
  13 F= -.25355778E+04 E0= -.25355325E+04  d E =-.183786E-01  mag=   251.0000
       N       E                     dE             d eps       ncg     rms          rms(c)
DAV:   1    -0.253515074623E+04    0.42698E+00   -0.81846E+01  7440   0.886E+00    0.343E+00
RMM:   2    -0.253547504876E+04   -0.32430E+00   -0.36328E+00  8105   0.315E+00    0.244E+00
RMM:   3    -0.253557036732E+04   -0.95319E-01   -0.85553E-01  8779   0.889E-01    0.129E+00
RMM:   4    -0.253556567282E+04    0.46945E-02   -0.89081E-02  8613   0.375E-01    0.138E+00
RMM:   5    -0.253556495632E+04    0.71650E-03   -0.30003E-02  9593   0.156E-01    0.887E-01
RMM:   6    -0.253556183693E+04    0.31194E-02   -0.16625E-02  8682   0.136E-01    0.667E-01
RMM:   7    -0.253556203969E+04   -0.20276E-03   -0.12557E-02  9239   0.105E-01    0.419E-01
RMM:   8    -0.253556254434E+04   -0.50465E-03   -0.34734E-03  8537   0.538E-02    0.284E-01
RMM:   9    -0.253556255441E+04   -0.10071E-04   -0.90319E-04  5632   0.447E-02
  14 F= -.25355626E+04 E0= -.25355247E+04  d E =-.310973E-02  mag=   251.0000
       N       E                     dE             d eps       ncg     rms          rms(c)
DAV:   1    -0.253542854581E+04    0.13400E+00   -0.31255E+01  7760   0.548E+00    0.217E+00
RMM:   2    -0.253554882578E+04   -0.12028E+00   -0.13441E+00  7897   0.197E+00    0.168E+00
RMM:   3    -0.253558715206E+04   -0.38326E-01   -0.34519E-01  8703   0.583E-01    0.828E-01
RMM:   4    -0.253558548094E+04    0.16711E-02   -0.35198E-02  8822   0.224E-01    0.826E-01
RMM:   5    -0.253558501067E+04    0.47026E-03   -0.11047E-02  8702   0.952E-02    0.572E-01
RMM:   6    -0.253558354606E+04    0.14646E-02   -0.57790E-03  8317   0.816E-02    0.435E-01
RMM:   7    -0.253558340377E+04    0.14229E-03   -0.44698E-03  8728   0.669E-02    0.275E-01
RMM:   8    -0.253558350680E+04   -0.10303E-03   -0.12308E-03  6863   0.368E-02    0.186E-01
RMM:   9    -0.253558349156E+04    0.15244E-04   -0.26783E-04  4073   0.328E-02
  15 F= -.25355835E+04 E0= -.25355410E+04  d E =-.240469E-01  mag=   251.0000
       N       E                     dE             d eps       ncg     rms          rms(c)
DAV:   1    -0.253555493378E+04    0.28573E-01   -0.10002E+01  8000   0.310E+00    0.149E+00
RMM:   2    -0.253558659711E+04   -0.31663E-01   -0.45120E-01  7578   0.121E+00    0.132E+00
RMM:   3    -0.253560131117E+04   -0.14714E-01   -0.13951E-01  8733   0.392E-01    0.606E-01
RMM:   4    -0.253560093852E+04    0.37265E-03   -0.15778E-02  9025   0.143E-01    0.634E-01
RMM:   5    -0.253560081073E+04    0.12779E-03   -0.40433E-03  8602   0.552E-02    0.441E-01
RMM:   6    -0.253560022583E+04    0.58490E-03   -0.28694E-03  7475   0.708E-02    0.342E-01
RMM:   7    -0.253560018157E+04    0.44262E-04   -0.24995E-03  8264   0.550E-02    0.240E-01
RMM:   8    -0.253560019545E+04   -0.13879E-04   -0.52425E-04  5120   0.302E-02
  16 F= -.25356002E+04 E0= -.25355615E+04  d E =-.167039E-01  mag=   251.0000
       N       E                     dE             d eps       ncg     rms          rms(c)
DAV:   1    -0.253550990792E+04    0.90274E-01   -0.20004E+01  8160   0.439E+00    0.211E+00
RMM:   2    -0.253557457075E+04   -0.64663E-01   -0.91323E-01  7580   0.172E+00    0.185E+00
RMM:   3    -0.253560484561E+04   -0.30275E-01   -0.28875E-01  8806   0.561E-01    0.848E-01
RMM:   4    -0.253560439115E+04    0.45446E-03   -0.34564E-02  9323   0.201E-01    0.851E-01
RMM:   5    -0.253560402796E+04    0.36319E-03   -0.86965E-03  9043   0.783E-02    0.588E-01
RMM:   6    -0.253560299923E+04    0.10287E-02   -0.54749E-03  7863   0.894E-02    0.445E-01
RMM:   7    -0.253560303994E+04   -0.40710E-04   -0.51274E-03  8760   0.745E-02    0.286E-01
RMM:   8    -0.253560307204E+04   -0.32096E-04   -0.11779E-03  6868   0.362E-02    0.166E-01
RMM:   9    -0.253560296769E+04    0.10435E-03   -0.31836E-04  4284   0.363E-02    0.125E-01
RMM:  10    -0.253560291805E+04    0.49636E-04   -0.33259E-04  4203   0.266E-02
  17 F= -.25356029E+04 E0= -.25355684E+04  d E =-.194265E-01  mag=   251.0000
       N       E                     dE             d eps       ncg     rms          rms(c)
DAV:   1    -0.253558488635E+04    0.18081E-01   -0.45249E+00  8080   0.209E+00    0.100E+00
RMM:   2    -0.253559858426E+04   -0.13698E-01   -0.20577E-01  7591   0.812E-01    0.839E-01
RMM:   3    -0.253560518219E+04   -0.65979E-02   -0.63841E-02  8709   0.264E-01    0.379E-01
RMM:   4    -0.253560499578E+04    0.18641E-03   -0.68648E-03  8622   0.976E-02    0.400E-01
RMM:   5    -0.253560489885E+04    0.96928E-04   -0.15517E-03  6916   0.417E-02    0.261E-01
RMM:   6    -0.253560469261E+04    0.20624E-03   -0.11786E-03  6268   0.476E-02    0.209E-01
RMM:   7    -0.253560470745E+04   -0.14837E-04   -0.10484E-03  6335   0.404E-02    0.110E-01
RMM:   8    -0.253560474398E+04   -0.36536E-04   -0.27635E-04  4165   0.275E-02
  18 F= -.25356047E+04 E0= -.25355684E+04  d E =-.212524E-01  mag=   251.0000
       N       E                     dE             d eps       ncg     rms          rms(c)
DAV:   1    -0.253555827258E+04    0.46435E-01   -0.10707E+01  7840   0.310E+00    0.194E+00
RMM:   2    -0.253559592622E+04   -0.37654E-01   -0.50806E-01  7604   0.126E+00    0.157E+00
RMM:   3    -0.253561420185E+04   -0.18276E-01   -0.15236E-01  8700   0.397E-01    0.597E-01
RMM:   4    -0.253561373748E+04    0.46437E-03   -0.17098E-02  8939   0.155E-01    0.608E-01
RMM:   5    -0.253561365024E+04    0.87240E-04   -0.53963E-03  8725   0.580E-02    0.414E-01
RMM:   6    -0.253561311451E+04    0.53573E-03   -0.30163E-03  7466   0.708E-02    0.304E-01
RMM:   7    -0.253561315359E+04   -0.39082E-04   -0.21950E-03  8037   0.517E-02    0.168E-01
RMM:   8    -0.253561317583E+04   -0.22242E-04   -0.28727E-04  4120   0.247E-02
  19 F= -.25356132E+04 E0= -.25355794E+04  d E =-.843185E-02  mag=   251.0000
       N       E                     dE             d eps       ncg     rms          rms(c)
DAV:   1    -0.253561146531E+04    0.16883E-02   -0.22331E-01  8480   0.451E-01    0.291E-01
RMM:   2    -0.253561233622E+04   -0.87092E-03   -0.11223E-02  7558   0.185E-01    0.225E-01
RMM:   3    -0.253561277634E+04   -0.44012E-03   -0.36062E-03  7988   0.607E-02    0.899E-02
RMM:   4    -0.253561278637E+04   -0.10032E-04   -0.35744E-04  4282   0.316E-02
  20 F= -.25356128E+04 E0= -.25355793E+04  d E =-.804239E-02  mag=   251.0000
       N       E                     dE             d eps       ncg     rms          rms(c)
DAV:   1    -0.253561238747E+04    0.38887E-03   -0.24726E+00  8000   0.165E+00    0.138E+00
RMM:   2    -0.253561518632E+04   -0.27988E-02   -0.15844E-01  7517   0.761E-01    0.127E+00
RMM:   3    -0.253562044654E+04   -0.52602E-02   -0.51019E-02  8643   0.234E-01    0.485E-01
RMM:   4    -0.253562013647E+04    0.31007E-03   -0.70999E-03  8468   0.986E-02    0.392E-01
RMM:   5    -0.253561995171E+04    0.18477E-03   -0.17907E-03  7529   0.459E-02    0.287E-01
RMM:   6    -0.253561975152E+04    0.20019E-03   -0.12283E-03  6290   0.437E-02    0.197E-01
RMM:   7    -0.253561970732E+04    0.44203E-04   -0.58552E-04  5102   0.389E-02
  21 F= -.25356197E+04 E0= -.25355854E+04  d E =-.692094E-02  mag=   251.0000
       N       E                     dE             d eps       ncg     rms          rms(c)
DAV:   1    -0.253561769159E+04    0.20599E-02   -0.56111E-01  8000   0.791E-01    0.659E-01
RMM:   2    -0.253561838281E+04   -0.69122E-03   -0.37173E-02  7529   0.367E-01    0.614E-01
RMM:   3    -0.253561970492E+04   -0.13221E-02   -0.12492E-02  8699   0.113E-01    0.234E-01
RMM:   4    -0.253561964884E+04    0.56074E-04   -0.16578E-03  6763   0.508E-02    0.207E-01
RMM:   5    -0.253561960977E+04    0.39075E-04   -0.31277E-04  4242   0.271E-02
  22 F= -.25356196E+04 E0= -.25355848E+04  d E =-.682340E-02  mag=   251.0000
       N       E                     dE             d eps       ncg     rms          rms(c)
DAV:   1    -0.253562494189E+04   -0.52930E-02   -0.25976E+00  7680   0.176E+00    0.178E+00
RMM:   2    -0.253561946155E+04    0.54803E-02   -0.18469E-01  7533   0.811E-01    0.163E+00
RMM:   3    -0.253562498470E+04   -0.55231E-02   -0.59520E-02  8477   0.245E-01    0.600E-01
RMM:   4    -0.253562409876E+04    0.88594E-03   -0.92827E-03  8022   0.131E-01    0.448E-01
RMM:   5    -0.253562391056E+04    0.18819E-03   -0.31809E-03  8462   0.608E-02    0.324E-01
RMM:   6    -0.253562378857E+04    0.12199E-03   -0.14008E-03  6183   0.496E-02    0.149E-01
RMM:   7    -0.253562385874E+04   -0.70167E-04   -0.48959E-04  4649   0.339E-02
  23 F= -.25356239E+04 E0= -.25355889E+04  d E =-.424897E-02  mag=   251.0000
       N       E                     dE             d eps       ncg     rms          rms(c)
DAV:   1    -0.253562456968E+04   -0.78111E-03   -0.79739E-02  8560   0.306E-01    0.303E-01
RMM:   2    -0.253562429749E+04    0.27219E-03   -0.50040E-03  7801   0.118E-01    0.282E-01
RMM:   3    -0.253562435888E+04   -0.61389E-04   -0.98531E-04  5677   0.351E-02
  24 F= -.25356244E+04 E0= -.25355894E+04  d E =-.474911E-02  mag=   251.0000
       N       E                     dE             d eps       ncg     rms          rms(c)
DAV:   1    -0.253561745670E+04    0.68408E-02   -0.18461E+00  7200   0.122E+00    0.459E-01
RMM:   2    -0.253562530843E+04   -0.78517E-02   -0.68985E-02  7818   0.442E-01    0.273E-01
RMM:   3    -0.253562765250E+04   -0.23441E-02   -0.18326E-02  8469   0.127E-01    0.130E-01
RMM:   4    -0.253562762389E+04    0.28615E-04   -0.19592E-03  6502   0.507E-02    0.108E-01
RMM:   5    -0.253562759528E+04    0.28606E-04   -0.57796E-04  4870   0.246E-02
  25 F= -.25356276E+04 E0= -.25355924E+04  d E =-.323640E-02  mag=   251.0000
       N       E                     dE             d eps       ncg     rms          rms(c)
DAV:   1    -0.253562332472E+04    0.42992E-02   -0.10308E+00  7280   0.908E-01    0.334E-01
RMM:   2    -0.253562771814E+04   -0.43934E-02   -0.38387E-02  7826   0.328E-01    0.225E-01
RMM:   3    -0.253562902831E+04   -0.13102E-02   -0.10747E-02  8616   0.948E-02    0.114E-01
RMM:   4    -0.253562901714E+04    0.11176E-04   -0.13373E-03  6125   0.360E-02    0.844E-02
RMM:   5    -0.253562897797E+04    0.39169E-04   -0.35877E-04  4447   0.227E-02
  26 F= -.25356290E+04 E0= -.25355936E+04  d E =-.461909E-02  mag=   251.0000
       N       E                     dE             d eps       ncg     rms          rms(c)
DAV:   1    -0.253562708807E+04    0.19291E-02   -0.14743E+00  6960   0.108E+00    0.461E-01
RMM:   2    -0.253563346429E+04   -0.63762E-02   -0.59294E-02  7813   0.408E-01    0.310E-01
RMM:   3    -0.253563553427E+04   -0.20700E-02   -0.16582E-02  8676   0.121E-01    0.135E-01
RMM:   4    -0.253563549714E+04    0.37131E-04   -0.18703E-03  6663   0.468E-02    0.107E-01
RMM:   5    -0.253563546055E+04    0.36593E-04   -0.52723E-04  4804   0.258E-02
  27 F= -.25356355E+04 E0= -.25355999E+04  d E =-.648258E-02  mag=   251.0000
       N       E                     dE             d eps       ncg     rms          rms(c)
DAV:   1    -0.253557350325E+04    0.61994E-01   -0.13359E+01  6720   0.326E+00    0.134E+00
RMM:   2    -0.253563025792E+04   -0.56755E-01   -0.52336E-01  7798   0.121E+00    0.820E-01
RMM:   3    -0.253564847049E+04   -0.18213E-01   -0.14708E-01  8830   0.360E-01    0.367E-01
RMM:   4    -0.253564805596E+04    0.41453E-03   -0.16136E-02  9021   0.125E-01    0.340E-01
RMM:   5    -0.253564789982E+04    0.15615E-03   -0.51294E-03  7926   0.488E-02    0.256E-01
RMM:   6    -0.253564744998E+04    0.44984E-03   -0.28228E-03  7727   0.606E-02    0.211E-01
RMM:   7    -0.253564747014E+04   -0.20169E-04   -0.12534E-03  6418   0.402E-02    0.783E-02
RMM:   8    -0.253564750030E+04   -0.30156E-04   -0.40883E-04  4543   0.376E-02
  28 F= -.25356475E+04 E0= -.25356115E+04  d E =-.185223E-01  mag=   251.0000
       N       E                     dE             d eps       ncg     rms          rms(c)
DAV:   1    -0.253533931304E+04    0.30816E+00   -0.53468E+01  6720   0.653E+00    0.272E+00
RMM:   2    -0.253556973211E+04   -0.23042E+00   -0.21141E+00  7797   0.244E+00    0.170E+00
RMM:   3    -0.253564310675E+04   -0.73375E-01   -0.58678E-01  8860   0.726E-01    0.754E-01
RMM:   4    -0.253564190014E+04    0.12066E-02   -0.63123E-02  9417   0.248E-01    0.683E-01
RMM:   5    -0.253564140959E+04    0.49055E-03   -0.20672E-02  9777   0.866E-02    0.525E-01
RMM:   6    -0.253563959283E+04    0.18168E-02   -0.94951E-03  8473   0.101E-01    0.477E-01
RMM:   7    -0.253563959816E+04   -0.53248E-05   -0.59801E-03  9067   0.610E-02    0.177E-01
RMM:   8    -0.253563966716E+04   -0.69000E-04   -0.14141E-03  6865   0.404E-02    0.135E-01
RMM:   9    -0.253563969295E+04   -0.25797E-04   -0.55488E-04  4847   0.276E-02
  29 F= -.25356397E+04 E0= -.25356030E+04  d E =-.107150E-01  mag=   251.0000
       N       E                     dE             d eps       ncg     rms          rms(c)
DAV:   1    -0.253553410544E+04    0.10556E+00   -0.21305E+01  6880   0.412E+00    0.168E+00
RMM:   2    -0.253562374424E+04   -0.89639E-01   -0.83169E-01  7856   0.153E+00    0.103E+00
RMM:   3    -0.253565093278E+04   -0.27189E-01   -0.21668E-01  8715   0.442E-01    0.450E-01
RMM:   4    -0.253565041064E+04    0.52214E-03   -0.22574E-02  8890   0.163E-01    0.408E-01
RMM:   5    -0.253565026006E+04    0.15058E-03   -0.77531E-03  8078   0.569E-02    0.311E-01
RMM:   6    -0.253564946910E+04    0.79096E-03   -0.36009E-03  7778   0.657E-02    0.269E-01
RMM:   7    -0.253564946649E+04    0.26062E-05   -0.22601E-03  7822   0.464E-02    0.120E-01
RMM:   8    -0.253564951678E+04   -0.50288E-04   -0.48066E-04  4786   0.305E-02
  30 F= -.25356495E+04 E0= -.25356132E+04  d E =-.205388E-01  mag=   251.0000
       N       E                     dE             d eps       ncg     rms          rms(c)
DAV:   1    -0.253564017351E+04    0.92930E-02   -0.34310E+00  7040   0.183E+00    0.192E+00
RMM:   2    -0.253565219675E+04   -0.12023E-01   -0.24061E-01  7576   0.906E-01    0.153E+00
RMM:   3    -0.253566335618E+04   -0.11159E-01   -0.82921E-02  8561   0.276E-01    0.543E-01
RMM:   4    -0.253566272500E+04    0.63118E-03   -0.11057E-02  8342   0.144E-01    0.464E-01
RMM:   5    -0.253566251872E+04    0.20628E-03   -0.35555E-03  8123   0.565E-02    0.280E-01
RMM:   6    -0.253566243934E+04    0.79379E-04   -0.16836E-03  6718   0.634E-02    0.188E-01
RMM:   7    -0.253566246719E+04   -0.27844E-04   -0.43983E-04  4448   0.342E-02
  31 F= -.25356625E+04 E0= -.25356265E+04  d E =-.129504E-01  mag=   251.0000
       N       E                     dE             d eps       ncg     rms          rms(c)
DAV:   1    -0.253566085407E+04    0.15853E-02   -0.14036E-01  7600   0.376E-01    0.411E-01
RMM:   2    -0.253566142047E+04   -0.56640E-03   -0.10816E-02  7594   0.188E-01    0.333E-01
RMM:   3    -0.253566195236E+04   -0.53189E-03   -0.38088E-03  7997   0.579E-02    0.114E-01
RMM:   4    -0.253566194813E+04    0.42247E-05   -0.37138E-04  4414   0.344E-02
  32 F= -.25356619E+04 E0= -.25356260E+04  d E =-.124314E-01  mag=   251.0000
       N       E                     dE             d eps       ncg     rms          rms(c)
DAV:   1    -0.253566303858E+04   -0.10862E-02   -0.11078E+00  7120   0.104E+00    0.868E-01
RMM:   2    -0.253566598525E+04   -0.29467E-02   -0.68858E-02  7568   0.481E-01    0.714E-01
RMM:   3    -0.253566846879E+04   -0.24835E-02   -0.21356E-02  8832   0.146E-01    0.244E-01
RMM:   4    -0.253566831444E+04    0.15435E-03   -0.28206E-03  7940   0.640E-02    0.209E-01
RMM:   5    -0.253566821774E+04    0.96700E-04   -0.56693E-04  5174   0.298E-02
  33 F= -.25356682E+04 E0= -.25356324E+04  d E =-.626961E-02  mag=   251.0000
       N       E                     dE             d eps       ncg     rms          rms(c)
DAV:   1    -0.253566864426E+04   -0.32982E-03   -0.29194E-01  7360   0.527E-01    0.427E-01
RMM:   2    -0.253566923807E+04   -0.59380E-03   -0.18145E-02  7573   0.242E-01    0.372E-01
RMM:   3    -0.253566990020E+04   -0.66213E-03   -0.62500E-03  8678   0.757E-02    0.144E-01
RMM:   4    -0.253566984877E+04    0.51421E-04   -0.72792E-04  5377   0.343E-02
  34 F= -.25356698E+04 E0= -.25356341E+04  d E =-.790064E-02  mag=   251.0000
       N       E                     dE             d eps       ncg     rms          rms(c)
DAV:   1    -0.253567097027E+04   -0.10701E-02   -0.10135E+00  6960   0.899E-01    0.319E-01
RMM:   2    -0.253567404368E+04   -0.30734E-02   -0.38521E-02  7626   0.326E-01    0.234E-01
RMM:   3    -0.253567511330E+04   -0.10696E-02   -0.10877E-02  8613   0.100E-01    0.124E-01
RMM:   4    -0.253567506199E+04    0.51311E-04   -0.13421E-03  6220   0.456E-02    0.107E-01
RMM:   5    -0.253567504255E+04    0.19438E-04   -0.46138E-04  4721   0.243E-02
  35 F= -.25356750E+04 E0= -.25356394E+04  d E =-.519378E-02  mag=   251.0000
       N       E                     dE             d eps       ncg     rms          rms(c)
DAV:   1    -0.253565126055E+04    0.23801E-01   -0.91143E+00  6800   0.269E+00    0.936E-01
RMM:   2    -0.253567988652E+04   -0.28626E-01   -0.34713E-01  7636   0.979E-01    0.644E-01
RMM:   3    -0.253568966841E+04   -0.97819E-02   -0.97186E-02  8926   0.302E-01    0.315E-01
RMM:   4    -0.253568933397E+04    0.33444E-03   -0.11028E-02  8599   0.106E-01    0.303E-01
RMM:   5    -0.253568919851E+04    0.13546E-03   -0.39923E-03  7673   0.459E-02    0.203E-01
RMM:   6    -0.253568906630E+04    0.13221E-03   -0.22280E-03  7482   0.510E-02    0.153E-01
RMM:   7    -0.253568910888E+04   -0.42588E-04   -0.82599E-04  5483   0.328E-02
  36 F= -.25356891E+04 E0= -.25356539E+04  d E =-.192601E-01  mag=   251.0000
       N       E                     dE             d eps       ncg     rms          rms(c)
DAV:   1    -0.253555651593E+04    0.13255E+00   -0.36517E+01  6800   0.540E+00    0.192E+00
RMM:   2    -0.253567339560E+04   -0.11688E+00   -0.14019E+00  7638   0.196E+00    0.135E+00
RMM:   3    -0.253571239480E+04   -0.38999E-01   -0.38378E-01  8931   0.603E-01    0.632E-01
RMM:   4    -0.253571112371E+04    0.12711E-02   -0.42921E-02  9372   0.208E-01    0.617E-01
RMM:   5    -0.253571072720E+04    0.39652E-03   -0.15851E-02  9450   0.791E-02    0.419E-01
RMM:   6    -0.253571012024E+04    0.60696E-03   -0.82900E-03  8679   0.864E-02    0.282E-01
RMM:   7    -0.253571032868E+04   -0.20844E-03   -0.35364E-03  8399   0.451E-02    0.151E-01
RMM:   8    -0.253571027655E+04    0.52131E-04   -0.76142E-04  5355   0.304E-02
  37 F= -.25357103E+04 E0= -.25356758E+04  d E =-.404278E-01  mag=   251.0000
       N       E                     dE             d eps       ncg     rms          rms(c)
DAV:   1    -0.253510278677E+04    0.60754E+00   -0.14614E+02  6800   0.108E+01    0.386E+00
RMM:   2    -0.253557901882E+04   -0.47623E+00   -0.56324E+00  7625   0.395E+00    0.280E+00
RMM:   3    -0.253573364370E+04   -0.15462E+00   -0.15208E+00  8913   0.121E+00    0.131E+00
RMM:   4    -0.253572821121E+04    0.54325E-02   -0.17187E-01  9379   0.415E-01    0.126E+00
RMM:   5    -0.253572577664E+04    0.24346E-02   -0.63936E-02  9743   0.164E-01    0.831E-01
RMM:   6    -0.253572374799E+04    0.20287E-02   -0.32153E-02  8844   0.165E-01    0.555E-01
RMM:   7    -0.253572457659E+04   -0.82860E-03   -0.13119E-02  9581   0.825E-02    0.274E-01
RMM:   8    -0.253572444207E+04    0.13452E-03   -0.31020E-03  7525   0.446E-02    0.177E-01
RMM:   9    -0.253572441514E+04    0.26930E-04   -0.17305E-03  6041   0.361E-02    0.108E-01
RMM:  10    -0.253572441097E+04    0.41691E-05   -0.15756E-03  6844   0.378E-02    0.779E-02
RMM:  11    -0.253572445255E+04   -0.41578E-04   -0.59532E-04  4601   0.288E-02
  38 F= -.25357245E+04 E0= -.25356912E+04  d E =-.546038E-01  mag=   251.0000
       N       E                     dE             d eps       ncg     rms          rms(c)
DAV:   1    -0.253560188872E+04    0.12252E+00   -0.29933E+01  6880   0.488E+00    0.170E+00
RMM:   2    -0.253569420399E+04   -0.92315E-01   -0.11394E+00  7674   0.176E+00    0.111E+00
RMM:   3    -0.253572420306E+04   -0.29999E-01   -0.29927E-01  8845   0.537E-01    0.548E-01
RMM:   4    -0.253572328102E+04    0.92203E-03   -0.31558E-02  8947   0.195E-01    0.530E-01
RMM:   5    -0.253572293385E+04    0.34718E-03   -0.11653E-02  8936   0.731E-02    0.365E-01
RMM:   6    -0.253572246841E+04    0.46543E-03   -0.61826E-03  8180   0.799E-02    0.240E-01
RMM:   7    -0.253572268833E+04   -0.21992E-03   -0.26695E-03  7954   0.425E-02    0.150E-01
RMM:   8    -0.253572262597E+04    0.62361E-04   -0.41914E-04  4681   0.274E-02
  39 F= -.25357226E+04 E0= -.25356888E+04  d E =-.527772E-01  mag=   251.0000
       N       E                     dE             d eps       ncg     rms          rms(c)
DAV:   1    -0.253571209229E+04    0.10596E-01   -0.31135E+00  6960   0.158E+00    0.537E-01
RMM:   2    -0.253572145795E+04   -0.93657E-02   -0.11450E-01  7606   0.569E-01    0.375E-01
RMM:   3    -0.253572439593E+04   -0.29380E-02   -0.29734E-02  8573   0.174E-01    0.186E-01
RMM:   4    -0.253572426539E+04    0.13053E-03   -0.31602E-03  7224   0.694E-02    0.178E-01
RMM:   5    -0.253572417298E+04    0.92409E-04   -0.10342E-03  5758   0.318E-02    0.118E-01
RMM:   6    -0.253572408523E+04    0.87754E-04   -0.59698E-04  5350   0.325E-02
  40 F= -.25357241E+04 E0= -.25356905E+04  d E =-.542365E-01  mag=   251.0000
       N       E                     dE             d eps       ncg     rms          rms(c)
DAV:   1    -0.253576819713E+04   -0.44024E-01   -0.99676E-01  8400   0.118E+00    0.114E+00
RMM:   2    -0.253575627352E+04    0.11924E-01   -0.73880E-02  8158   0.407E-01    0.558E-01
RMM:   3    -0.253575629046E+04   -0.16938E-04   -0.27027E-02  8206   0.174E-01    0.373E-01
RMM:   4    -0.253575626348E+04    0.26974E-04   -0.43059E-03  7684   0.969E-02    0.192E-01
RMM:   5    -0.253575613635E+04    0.12714E-03   -0.65504E-04  5119   0.419E-02    0.118E-01
RMM:   6    -0.253575613118E+04    0.51692E-05   -0.40785E-04  4475   0.320E-02
  41 F= -.25357561E+04 E0= -.25357226E+04  d E =-.320459E-01  mag=   251.0000
       N       E                     dE             d eps       ncg     rms          rms(c)
DAV:   1    -0.253590466795E+04   -0.14853E+00   -0.88807E+00  7840   0.351E+00    0.349E+00
RMM:   2    -0.253579917846E+04    0.10549E+00   -0.68355E-01  8030   0.132E+00    0.211E+00
RMM:   3    -0.253580563897E+04   -0.64605E-02   -0.24006E-01  8381   0.494E-01    0.102E+00
RMM:   4    -0.253580127183E+04    0.43671E-02   -0.36099E-02  7859   0.290E-01    0.591E-01
RMM:   5    -0.253580045533E+04    0.81649E-03   -0.12507E-02  8088   0.134E-01    0.474E-01
RMM:   6    -0.253580061603E+04   -0.16070E-03   -0.36880E-03  7897   0.718E-02    0.248E-01
RMM:   7    -0.253580071881E+04   -0.10278E-03   -0.85234E-04  5563   0.353E-02    0.103E-01
RMM:   8    -0.253580075501E+04   -0.36200E-04   -0.26269E-04  4035   0.311E-02
  42 F= -.25358008E+04 E0= -.25357674E+04  d E =-.766698E-01  mag=   251.0000
       N       E                     dE             d eps       ncg     rms          rms(c)
DAV:   1    -0.253580582238E+04   -0.51036E-02   -0.46263E-01  8080   0.613E-01    0.196E-01
RMM:   2    -0.253580736768E+04   -0.15453E-02   -0.16975E-02  7544   0.220E-01    0.142E-01
RMM:   3    -0.253580788060E+04   -0.51292E-03   -0.47999E-03  7826   0.673E-02    0.655E-02
RMM:   4    -0.253580788518E+04   -0.45812E-05   -0.61076E-04  5034   0.352E-02
  43 F= -.25358079E+04 E0= -.25357745E+04  d E =-.713017E-02  mag=   251.0000
       N       E                     dE             d eps       ncg     rms          rms(c)
DAV:   1    -0.253581059269E+04   -0.27121E-02   -0.41659E+00  7360   0.183E+00    0.551E-01
RMM:   2    -0.253582424718E+04   -0.13654E-01   -0.15027E-01  7732   0.652E-01    0.400E-01
RMM:   3    -0.253582875995E+04   -0.45128E-02   -0.43140E-02  8729   0.193E-01    0.200E-01
RMM:   4    -0.253582869317E+04    0.66772E-04   -0.54221E-03  7629   0.688E-02    0.186E-01
RMM:   5    -0.253582867026E+04    0.22911E-04   -0.19093E-03  6560   0.340E-02    0.130E-01
RMM:   6    -0.253582858016E+04    0.90103E-04   -0.10227E-03  6107   0.366E-02    0.958E-02
RMM:   7    -0.253582860206E+04   -0.21902E-04   -0.47286E-04  4662   0.300E-02
  44 F= -.25358286E+04 E0= -.25357949E+04  d E =-.278471E-01  mag=   251.0000
       N       E                     dE             d eps       ncg     rms          rms(c)
DAV:   1    -0.253579477203E+04    0.33808E-01   -0.16589E+01  7120   0.366E+00    0.114E+00
RMM:   2    -0.253584988231E+04   -0.55110E-01   -0.60106E-01  7719   0.130E+00    0.815E-01
RMM:   3    -0.253586811706E+04   -0.18235E-01   -0.17125E-01  8736   0.389E-01    0.380E-01
RMM:   4    -0.253586803985E+04    0.77213E-04   -0.20667E-02  8832   0.133E-01    0.363E-01
RMM:   5    -0.253586807648E+04   -0.36630E-04   -0.72823E-03  7891   0.539E-02    0.263E-01
RMM:   6    -0.253586771279E+04    0.36369E-03   -0.37223E-03  8081   0.612E-02    0.205E-01
RMM:   7    -0.253585604457E+04    0.11668E-01   -0.13489E+00  7135   0.213E-01    0.883E-02
RMM:   8    -0.253586723014E+04   -0.11186E-01   -0.57837E-02  4763   0.736E-02    0.715E-02
RMM:   9    -0.253586769701E+04   -0.46687E-03   -0.35489E-03  4256   0.388E-02    0.445E-02
RMM:  10    -0.253586781365E+04   -0.11664E-03   -0.12828E-03  4080   0.259E-02    0.293E-02
RMM:  11    -0.253586781827E+04   -0.46209E-05   -0.19766E-04  3948   0.201E-02
  45 F= -.25358678E+04 E0= -.25358335E+04  d E =-.670633E-01  mag=   251.0000
       N       E                     dE             d eps       ncg     rms          rms(c)
DAV:   1    -0.253564572195E+04    0.22209E+00   -0.66534E+01  7120   0.734E+00    0.227E+00
RMM:   2    -0.253586692470E+04   -0.22120E+00   -0.23956E+00  7684   0.261E+00    0.165E+00
RMM:   3    -0.253593919338E+04   -0.72269E-01   -0.68133E-01  8717   0.785E-01    0.779E-01
RMM:   4    -0.253593870097E+04    0.49242E-03   -0.80685E-02  9121   0.270E-01    0.747E-01
RMM:   5    -0.253593865124E+04    0.49729E-04   -0.29000E-02  9695   0.103E-01    0.545E-01
RMM:   6    -0.253593706788E+04    0.15834E-02   -0.13845E-02  8655   0.114E-01    0.441E-01
RMM:   7    -0.253593739135E+04   -0.32347E-03   -0.76563E-03  9094   0.633E-02    0.176E-01
RMM:   8    -0.253593743119E+04   -0.39837E-04   -0.17151E-03  6652   0.441E-02    0.146E-01
RMM:   9    -0.253593746345E+04   -0.32259E-04   -0.87875E-04  5190   0.290E-02
  46 F= -.25359375E+04 E0= -.25359018E+04  d E =-.136708E+00  mag=   251.0000
       N       E                     dE             d eps       ncg     rms          rms(c)
DAV:   1    -0.253484793676E+04    0.10895E+01   -0.26578E+02  7120   0.147E+01    0.464E+00
RMM:   2    -0.253575322137E+04   -0.90528E+00   -0.97164E+00  7651   0.527E+00    0.348E+00
RMM:   3    -0.253604927311E+04   -0.29605E+00   -0.27880E+00  8769   0.160E+00    0.166E+00
RMM:   4    -0.253604607114E+04    0.32020E-02   -0.32164E-01  9281   0.538E-01    0.159E+00
RMM:   5    -0.253604516819E+04    0.90295E-03   -0.11798E-01 10096   0.202E-01    0.116E+00
RMM:   6    -0.253603867508E+04    0.64931E-02   -0.55594E-02  8578   0.228E-01    0.918E-01
RMM:   7    -0.253604008769E+04   -0.14126E-02   -0.30111E-02  9471   0.126E-01    0.372E-01
RMM:   8    -0.253604032111E+04   -0.23342E-03   -0.72807E-03  8416   0.797E-02    0.330E-01
RMM:   9    -0.253604046050E+04   -0.13939E-03   -0.35756E-03  7274   0.479E-02    0.166E-01
RMM:  10    -0.253604042961E+04    0.30890E-04   -0.25150E-03  7246   0.430E-02    0.148E-01
RMM:  11    -0.253604050649E+04   -0.76882E-04   -0.11515E-03  5222   0.328E-02    0.674E-02
RMM:  12    -0.253604056021E+04   -0.53716E-04   -0.63821E-04  4509   0.293E-02
  47 F= -.25360406E+04 E0= -.25360023E+04  d E =-.239805E+00  mag=   251.0000
       N       E                     dE             d eps       ncg     rms          rms(c)
DAV:   1    -0.253104571198E+04    0.49948E+01   -0.10575E+03  7120   0.293E+01    0.993E+00
RMM:   2    -0.253492875002E+04   -0.38830E+01   -0.41190E+01  7604   0.108E+01    0.804E+00
RMM:   3    -0.253616767684E+04   -0.12389E+01   -0.11675E+01  8820   0.333E+00    0.382E+00
RMM:   4    -0.253612912231E+04    0.38555E-01   -0.12798E+00  9441   0.108E+00    0.363E+00
RMM:   5    -0.253611814423E+04    0.10978E-01   -0.47913E-01 10217   0.402E-01    0.270E+00
RMM:   6    -0.253608529369E+04    0.32851E-01   -0.20593E-01  8452   0.453E-01    0.197E+00
RMM:   7    -0.253608829043E+04   -0.29967E-02   -0.12246E-01  9563   0.263E-01    0.909E-01
RMM:   8    -0.253608999299E+04   -0.17026E-02   -0.32187E-02  9689   0.163E-01    0.731E-01
RMM:   9    -0.253609056255E+04   -0.56956E-03   -0.13676E-02  9695   0.816E-02    0.340E-01
RMM:  10    -0.253609031761E+04    0.24494E-03   -0.70662E-03  9181   0.702E-02    0.312E-01
RMM:  11    -0.253609046164E+04   -0.14403E-03   -0.38195E-03  7283   0.473E-02    0.146E-01
RMM:  12    -0.253609059062E+04   -0.12898E-03   -0.16922E-03  6109   0.378E-02    0.899E-02
RMM:  13    -0.253609072340E+04   -0.13278E-03   -0.15449E-03  5012   0.330E-02    0.639E-02
RMM:  14    -0.253609077268E+04   -0.49279E-04   -0.62389E-04  4726   0.299E-02
  48 F= -.25360908E+04 E0= -.25360531E+04  d E =-.290018E+00  mag=   251.0000
       N       E                     dE             d eps       ncg     rms          rms(c)
DAV:   1    -0.253501101988E+04    0.10797E+01   -0.25195E+02  7120   0.143E+01    0.444E+00
RMM:   2    -0.253585581838E+04   -0.84480E+00   -0.94475E+00  7894   0.507E+00    0.325E+00
RMM:   3    -0.253610740700E+04   -0.25159E+00   -0.23825E+00  8753   0.143E+00    0.148E+00
RMM:   4    -0.253609936841E+04    0.80386E-02   -0.27864E-01  8857   0.542E-01    0.141E+00
RMM:   5    -0.253609991619E+04   -0.54777E-03   -0.10128E-01  9870   0.200E-01    0.102E+00
RMM:   6    -0.253609283350E+04    0.70827E-02   -0.43340E-02  8704   0.199E-01    0.710E-01
RMM:   7    -0.253609377353E+04   -0.94003E-03   -0.30129E-02  9322   0.124E-01    0.402E-01
RMM:   8    -0.253609412107E+04   -0.34753E-03   -0.58609E-03  8855   0.706E-02    0.292E-01
RMM:   9    -0.253609422461E+04   -0.10355E-03   -0.25361E-03  7141   0.394E-02    0.161E-01
RMM:  10    -0.253609419344E+04    0.31177E-04   -0.11938E-03  6378   0.369E-02    0.115E-01
RMM:  11    -0.253609427780E+04   -0.84363E-04   -0.86791E-04  5341   0.315E-02
  49 F= -.25360943E+04 E0= -.25360549E+04  d E =-.293523E+00  mag=   251.0000
       N       E                     dE             d eps       ncg     rms          rms(c)
DAV:   1    -0.253585547395E+04    0.23872E+00   -0.56453E+01  7200   0.676E+00    0.211E+00
RMM:   2    -0.253604191177E+04   -0.18644E+00   -0.20338E+00  7704   0.241E+00    0.151E+00
RMM:   3    -0.253610187726E+04   -0.59965E-01   -0.56564E-01  8682   0.720E-01    0.728E-01
RMM:   4    -0.253610142495E+04    0.45230E-03   -0.64616E-02  9027   0.253E-01    0.723E-01
RMM:   5    -0.253610140769E+04    0.17265E-04   -0.22776E-02  9190   0.921E-02    0.545E-01
RMM:   6    -0.253609974920E+04    0.16585E-02   -0.10511E-02  8357   0.106E-01    0.423E-01
RMM:   7    -0.253609996939E+04   -0.22019E-03   -0.67829E-03  8996   0.627E-02    0.177E-01
RMM:   8    -0.253609995101E+04    0.18382E-04   -0.12224E-03  6506   0.398E-02    0.152E-01
RMM:   9    -0.253609994120E+04    0.98072E-05   -0.50634E-04  4812   0.271E-02
  50 F= -.25360999E+04 E0= -.25360610E+04  d E =-.299186E+00  mag=   251.0000
       N       E                     dE             d eps       ncg     rms          rms(c)
DAV:   1    -0.253610164060E+04   -0.16896E-02   -0.45903E-02  8480   0.195E-01    0.975E-02
RMM:   2    -0.253610184948E+04   -0.20887E-03   -0.22065E-03  7014   0.734E-02    0.117E-01
RMM:   3    -0.253610188899E+04   -0.39514E-04   -0.42901E-04  4593   0.245E-02
  51 F= -.25361019E+04 E0= -.25360629E+04  d E =-.194779E-02  mag=   251.0000
       N       E                     dE             d eps       ncg     rms          rms(c)
DAV:   1    -0.253610619973E+04   -0.43503E-02   -0.39217E-01  7200   0.556E-01    0.132E-01
RMM:   2    -0.253610744344E+04   -0.12437E-02   -0.12920E-02  7385   0.190E-01    0.983E-02
RMM:   3    -0.253610783948E+04   -0.39604E-03   -0.38492E-03  7336   0.567E-02    0.528E-02
RMM:   4    -0.253610783830E+04    0.11821E-05   -0.49791E-04  4969   0.320E-02
  52 F= -.25361078E+04 E0= -.25360690E+04  d E =-.789710E-02  mag=   251.0000
       N       E                     dE             d eps       ncg     rms          rms(c)
DAV:   1    -0.253611342702E+04   -0.55875E-02   -0.15556E+00  6960   0.111E+00    0.266E-01
RMM:   2    -0.253611819951E+04   -0.47725E-02   -0.49905E-02  7601   0.377E-01    0.217E-01
RMM:   3    -0.253611981491E+04   -0.16154E-02   -0.15553E-02  8268   0.111E-01    0.110E-01
RMM:   4    -0.253611979215E+04    0.22763E-04   -0.19849E-03  6388   0.398E-02    0.102E-01
RMM:   5    -0.253611979951E+04   -0.73628E-05   -0.71515E-04  5239   0.222E-02
  53 F= -.25361198E+04 E0= -.25360810E+04  d E =-.198583E-01  mag=   251.0000
       N       E                     dE             d eps       ncg     rms          rms(c)
DAV:   1    -0.253611859554E+04    0.11966E-02   -0.61833E+00  6800   0.220E+00    0.532E-01
RMM:   2    -0.253613751601E+04   -0.18920E-01   -0.19674E-01  7599   0.744E-01    0.420E-01
RMM:   3    -0.253614386950E+04   -0.63535E-02   -0.60757E-02  8507   0.223E-01    0.210E-01
RMM:   4    -0.253614380351E+04    0.65989E-04   -0.73276E-03  7512   0.677E-02    0.181E-01
RMM:   5    -0.253614379901E+04    0.44984E-05   -0.26660E-03  6625   0.363E-02    0.135E-01
RMM:   6    -0.253614369794E+04    0.10107E-03   -0.14200E-03  6544   0.392E-02    0.119E-01
RMM:   7    -0.253614372554E+04   -0.27595E-04   -0.69932E-04  5238   0.308E-02
  54 F= -.25361437E+04 E0= -.25361053E+04  d E =-.437843E-01  mag=   251.0000
       N       E                     dE             d eps       ncg     rms          rms(c)
DAV:   1    -0.253608969953E+04    0.53998E-01   -0.24781E+01  6640   0.441E+00    0.108E+00
RMM:   2    -0.253616686556E+04   -0.77166E-01   -0.79916E-01  7620   0.149E+00    0.827E-01
RMM:   3    -0.253619220806E+04   -0.25343E-01   -0.23982E-01  8561   0.446E-01    0.402E-01
RMM:   4    -0.253619210370E+04    0.10436E-03   -0.28306E-02  8987   0.138E-01    0.366E-01
RMM:   5    -0.253619225781E+04   -0.15411E-03   -0.10134E-02  7753   0.548E-02    0.274E-01
RMM:   6    -0.253619169452E+04    0.56329E-03   -0.53619E-03  8425   0.706E-02    0.238E-01
RMM:   7    -0.253619177001E+04   -0.75481E-04   -0.26437E-03  7378   0.418E-02    0.973E-02
RMM:   8    -0.253619182242E+04   -0.52418E-04   -0.67966E-04  5168   0.394E-02
  55 F= -.25361918E+04 E0= -.25361542E+04  d E =-.918812E-01  mag=   251.0000
       N       E                     dE             d eps       ncg     rms          rms(c)
DAV:   1    -0.253587596101E+04    0.31581E+00   -0.99224E+01  6640   0.883E+00    0.215E+00
RMM:   2    -0.253618809522E+04   -0.31213E+00   -0.32230E+00  7638   0.300E+00    0.160E+00
RMM:   3    -0.253628891685E+04   -0.10082E+00   -0.95481E-01  8557   0.893E-01    0.809E-01
RMM:   4    -0.253628844692E+04    0.46994E-03   -0.11133E-01  9249   0.275E-01    0.740E-01
RMM:   5    -0.253628891058E+04   -0.46366E-03   -0.40224E-02  9797   0.105E-01    0.561E-01
RMM:   6    -0.253628643611E+04    0.24745E-02   -0.19982E-02  8706   0.130E-01    0.499E-01
RMM:   7    -0.253628677672E+04   -0.34060E-03   -0.11265E-02  9117   0.749E-02    0.198E-01
RMM:   8    -0.253628693996E+04   -0.16324E-03   -0.24754E-03  6988   0.552E-02    0.170E-01
RMM:   9    -0.253628699537E+04   -0.55408E-04   -0.12308E-03  5748   0.332E-02    0.103E-01
RMM:  10    -0.253628700032E+04   -0.49502E-05   -0.69615E-04  5032   0.265E-02
  56 F= -.25362870E+04 E0= -.25362514E+04  d E =-.187059E+00  mag=   251.0000
       N       E                     dE             d eps       ncg     rms          rms(c)
DAV:   1    -0.253477946629E+04    0.15075E+01   -0.39657E+02  6640   0.177E+01    0.436E+00
RMM:   2    -0.253606561665E+04   -0.12862E+01   -0.13241E+01  7637   0.607E+00    0.318E+00
RMM:   3    -0.253647133204E+04   -0.40572E+00   -0.38457E+00  8561   0.181E+00    0.170E+00
RMM:   4    -0.253646872592E+04    0.26061E-02   -0.44196E-01  9265   0.569E-01    0.156E+00
RMM:   5    -0.253646909139E+04   -0.36548E-03   -0.16442E-01 10152   0.209E-01    0.119E+00
RMM:   6    -0.253645758664E+04    0.11505E-01   -0.80527E-02  8487   0.271E-01    0.109E+00
RMM:   7    -0.253645884360E+04   -0.12570E-02   -0.45526E-02  9400   0.154E-01    0.439E-01
RMM:   8    -0.253645927424E+04   -0.43065E-03   -0.95357E-03  8532   0.983E-02    0.331E-01
RMM:   9    -0.253645951884E+04   -0.24460E-03   -0.47685E-03  7518   0.501E-02    0.189E-01
RMM:  10    -0.253645956374E+04   -0.44899E-04   -0.24134E-03  7080   0.447E-02    0.159E-01
RMM:  11    -0.253645966834E+04   -0.10459E-03   -0.14524E-03  5740   0.328E-02    0.811E-02
RMM:  12    -0.253645972953E+04   -0.61197E-04   -0.72327E-04  4733   0.333E-02
  57 F= -.25364597E+04 E0= -.25364286E+04  d E =-.359788E+00  mag=   251.0000
       N       E                     dE             d eps       ncg     rms          rms(c)
DAV:   1    -0.252936230600E+04    0.70974E+01   -0.15749E+03  6480   0.352E+01    0.960E+00
RMM:   2    -0.253502060134E+04   -0.56583E+01   -0.58444E+01  7644   0.125E+01    0.708E+00
RMM:   3    -0.253672598285E+04   -0.17054E+01   -0.16221E+01  8623   0.376E+00    0.407E+00
RMM:   4    -0.253667967629E+04    0.46307E-01   -0.17421E+00  9245   0.120E+00    0.379E+00
RMM:   5    -0.253666797474E+04    0.11702E-01   -0.69216E-01 10056   0.431E-01    0.287E+00
RMM:   6    -0.253660696192E+04    0.61013E-01   -0.30278E-01  8341   0.568E-01    0.231E+00
RMM:   7    -0.253660885383E+04   -0.18919E-02   -0.20349E-01  9442   0.326E-01    0.976E-01
RMM:   8    -0.253660943597E+04   -0.58214E-03   -0.40603E-02  9276   0.215E-01    0.719E-01
RMM:   9    -0.253661090315E+04   -0.14672E-02   -0.20956E-02  9864   0.960E-02    0.389E-01
RMM:  10    -0.253661097553E+04   -0.72381E-04   -0.69607E-03  9251   0.649E-02    0.293E-01
RMM:  11    -0.253661119901E+04   -0.22348E-03   -0.45137E-03  7175   0.448E-02    0.166E-01
RMM:  12    -0.253661122901E+04   -0.30006E-04   -0.14220E-03  6406   0.484E-02    0.828E-02
RMM:  13    -0.253661136030E+04   -0.13129E-03   -0.18728E-03  5732   0.374E-02    0.533E-02
RMM:  14    -0.253661141745E+04   -0.57145E-04   -0.68437E-04  4976   0.395E-02
  58 F= -.25366114E+04 E0= -.25365843E+04  d E =-.511476E+00  mag=   251.0000
       N       E                     dE             d eps       ncg     rms          rms(c)
DAV:   1    -0.253606110079E+04    0.55026E+00   -0.20788E+02  6480   0.125E+01    0.280E+00
RMM:   2    -0.253669451680E+04   -0.63342E+00   -0.65350E+00  7411   0.428E+00    0.164E+00
RMM:   3    -0.253690671623E+04   -0.21220E+00   -0.20098E+00  8566   0.133E+00    0.119E+00
RMM:   4    -0.253690650890E+04    0.20733E-03   -0.22438E-01  9488   0.382E-01    0.961E-01
RMM:   5    -0.253690676923E+04   -0.26033E-03   -0.81068E-02 10064   0.149E-01    0.680E-01
RMM:   6    -0.253689983477E+04    0.69345E-02   -0.37868E-02  8775   0.183E-01    0.621E-01
RMM:   7    -0.253690073399E+04   -0.89923E-03   -0.25575E-02  9117   0.111E-01    0.328E-01
RMM:   8    -0.253690111834E+04   -0.38435E-03   -0.45293E-03  7940   0.733E-02    0.253E-01
RMM:   9    -0.253690112271E+04   -0.43683E-05   -0.25155E-03  6467   0.370E-02    0.164E-01
RMM:  10    -0.253690096753E+04    0.15518E-03   -0.11783E-03  6297   0.368E-02    0.107E-01
RMM:  11    -0.253690097552E+04   -0.79910E-05   -0.10560E-03  5702   0.323E-02    0.556E-02
RMM:  12    -0.253690100808E+04   -0.32558E-04   -0.47733E-04  4589   0.350E-02
  59 F= -.25369010E+04 E0= -.25368737E+04  d E =-.289591E+00  mag=   251.0000
       N       E                     dE             d eps       ncg     rms          rms(c)
DAV:   1    -0.252928437087E+04    0.76166E+01   -0.18577E+03  6320   0.375E+01    0.960E+00
RMM:   2    -0.253544184815E+04   -0.61575E+01   -0.65406E+01  7458   0.132E+01    0.592E+00
RMM:   3    -0.253744261049E+04   -0.20008E+01   -0.19029E+01  8555   0.415E+00    0.437E+00
RMM:   4    -0.253739023722E+04    0.52373E-01   -0.19796E+00  9065   0.132E+00    0.361E+00
RMM:   5    -0.253738960824E+04    0.62898E-03   -0.76823E-01 10123   0.486E-01    0.262E+00
RMM:   6    -0.253730329953E+04    0.86309E-01   -0.40059E-01  8687   0.613E-01    0.232E+00
RMM:   7    -0.253731224502E+04   -0.89455E-02   -0.28876E-01  9158   0.387E-01    0.129E+00
RMM:   8    -0.253731011521E+04    0.21298E-02   -0.42672E-02  9209   0.236E-01    0.825E-01
RMM:   9    -0.253730877631E+04    0.13389E-02   -0.28545E-02  9394   0.125E-01    0.565E-01
RMM:  10    -0.253730785106E+04    0.92525E-03   -0.16284E-02  9710   0.934E-02    0.282E-01
RMM:  11    -0.253730774803E+04    0.10304E-03   -0.44593E-03  8075   0.534E-02    0.182E-01
RMM:  12    -0.253730769691E+04    0.51116E-04   -0.14827E-03  6442   0.444E-02    0.112E-01
RMM:  13    -0.253730775171E+04   -0.54797E-04   -0.12021E-03  6111   0.379E-02    0.645E-02
RMM:  14    -0.253730779936E+04   -0.47651E-04   -0.59677E-04  4854   0.368E-02
  60 F= -.25373078E+04 E0= -.25372793E+04  d E =-.696382E+00  mag=   251.0000
       N       E                     dE             d eps       ncg     rms          rms(c)
DAV:   1    -0.253767912917E+04   -0.37138E+00   -0.12332E+01  8640   0.353E+00    0.274E+00
RMM:   2    -0.253773912871E+04   -0.60000E-01   -0.64758E-01  7455   0.151E+00    0.227E+00
RMM:   3    -0.253777101159E+04   -0.31883E-01   -0.23162E-01  8558   0.479E-01    0.769E-01
RMM:   4    -0.253777072382E+04    0.28777E-03   -0.27389E-02  8855   0.200E-01    0.687E-01
RMM:   5    -0.253777069317E+04    0.30647E-04   -0.93188E-03  8793   0.757E-02    0.515E-01
RMM:   6    -0.253776986240E+04    0.83076E-03   -0.31868E-03  8031   0.662E-02    0.314E-01
RMM:   7    -0.253776988843E+04   -0.26022E-04   -0.30643E-03  8527   0.555E-02    0.155E-01
RMM:   8    -0.253776991626E+04   -0.27840E-04   -0.37077E-04  4382   0.307E-02
  61 F= -.25377699E+04 E0= -.25377414E+04  d E =-.462117E+00  mag=   251.0000
       N       E                     dE             d eps       ncg     rms          rms(c)
DAV:   1    -0.253802137966E+04   -0.25149E+00   -0.11086E+02  8400   0.106E+01    0.803E+00
RMM:   2    -0.253856181126E+04   -0.54043E+00   -0.58655E+00  7544   0.449E+00    0.656E+00
RMM:   3    -0.253884521105E+04   -0.28340E+00   -0.20365E+00  8467   0.142E+00    0.222E+00
RMM:   4    -0.253884180621E+04    0.34048E-02   -0.23470E-01  8697   0.598E-01    0.202E+00
RMM:   5    -0.253884229041E+04   -0.48420E-03   -0.87132E-02 10028   0.223E-01    0.149E+00
RMM:   6    -0.253883457711E+04    0.77133E-02   -0.26931E-02  8817   0.180E-01    0.935E-01
RMM:   7    -0.253883429782E+04    0.27929E-03   -0.24549E-02  9010   0.147E-01    0.482E-01
RMM:   8    -0.253883474261E+04   -0.44479E-03   -0.57500E-03  9486   0.714E-02    0.270E-01
RMM:   9    -0.253883449986E+04    0.24275E-03   -0.15589E-03  7325   0.426E-02    0.152E-01
RMM:  10    -0.253883447792E+04    0.21946E-04   -0.11442E-03  6456   0.407E-02    0.132E-01
RMM:  11    -0.253883451248E+04   -0.34563E-04   -0.37734E-04  4347   0.322E-02
  62 F= -.25388345E+04 E0= -.25388058E+04  d E =-.152671E+01  mag=   251.0000
       N       E                     dE             d eps       ncg     rms          rms(c)
DAV:   1    -0.253614816541E+04    0.26863E+01   -0.44259E+02  8080   0.211E+01    0.155E+01
RMM:   2    -0.253832507410E+04   -0.21769E+01   -0.23765E+01  7504   0.912E+00    0.122E+01
RMM:   3    -0.253950316236E+04   -0.11781E+01   -0.86388E+00  8438   0.294E+00    0.431E+00
RMM:   4    -0.253949718442E+04    0.59779E-02   -0.10486E+00  8671   0.122E+00    0.402E+00
RMM:   5    -0.253949711337E+04    0.71044E-04   -0.34939E-01  9944   0.459E-01    0.288E+00
RMM:   6    -0.253946352066E+04    0.33593E-01   -0.12477E-01  8791   0.379E-01    0.184E+00
RMM:   7    -0.253946309725E+04    0.42341E-03   -0.10594E-01  9047   0.301E-01    0.947E-01
RMM:   8    -0.253946449273E+04   -0.13955E-02   -0.22348E-02 10120   0.137E-01    0.552E-01
RMM:   9    -0.253946357834E+04    0.91438E-03   -0.77376E-03  9644   0.776E-02    0.291E-01
RMM:  10    -0.253946356043E+04    0.17911E-04   -0.48823E-03  9270   0.624E-02    0.252E-01
RMM:  11    -0.253946368898E+04   -0.12854E-03   -0.16256E-03  7259   0.404E-02    0.143E-01
RMM:  12    -0.253946375308E+04   -0.64103E-04   -0.52212E-04  5054   0.358E-02
  63 F= -.25394638E+04 E0= -.25394323E+04  d E =-.215595E+01  mag=   251.0000
       N       E                     dE             d eps       ncg     rms          rms(c)
DAV:   1    -0.253935799512E+04    0.10569E+00   -0.19245E+01  8560   0.442E+00    0.340E+00
RMM:   2    -0.253945621704E+04   -0.98222E-01   -0.10387E+00  7543   0.192E+00    0.293E+00
RMM:   3    -0.253950518913E+04   -0.48972E-01   -0.34968E-01  8485   0.594E-01    0.103E+00
RMM:   4    -0.253950449207E+04    0.69705E-03   -0.42257E-02  8751   0.245E-01    0.902E-01
RMM:   5    -0.253950421469E+04    0.27738E-03   -0.13640E-02  8983   0.914E-02    0.690E-01
RMM:   6    -0.253950264171E+04    0.15730E-02   -0.46450E-03  8321   0.803E-02    0.420E-01
RMM:   7    -0.253950247417E+04    0.16753E-03   -0.43192E-03  8373   0.662E-02    0.208E-01
RMM:   8    -0.253950246262E+04    0.11547E-04   -0.55116E-04  5077   0.356E-02
  64 F= -.25395025E+04 E0= -.25394716E+04  d E =-.219466E+01  mag=   251.0000
       N       E                     dE             d eps       ncg     rms          rms(c)
DAV:   1    -0.253971736226E+04   -0.21489E+00   -0.52573E+01  8400   0.722E+00    0.396E+00
RMM:   2    -0.253990278746E+04   -0.18543E+00   -0.23832E+00  7617   0.278E+00    0.362E+00
RMM:   3    -0.253998238463E+04   -0.79597E-01   -0.69684E-01  8608   0.850E-01    0.142E+00
RMM:   4    -0.253997901325E+04    0.33714E-02   -0.77606E-02  8925   0.334E-01    0.131E+00
RMM:   5    -0.253997919004E+04   -0.17680E-03   -0.29261E-02  9981   0.123E-01    0.963E-01
RMM:   6    -0.253997574434E+04    0.34457E-02   -0.14096E-02  8203   0.143E-01    0.743E-01
RMM:   7    -0.253997556536E+04    0.17898E-03   -0.11839E-02  8838   0.104E-01    0.233E-01
RMM:   8    -0.253997551177E+04    0.53598E-04   -0.18792E-03  7429   0.440E-02    0.151E-01
RMM:   9    -0.253997534877E+04    0.16300E-03   -0.56970E-04  5129   0.351E-02    0.882E-02
RMM:  10    -0.253997531314E+04    0.35627E-04   -0.56516E-04  4949   0.313E-02
  65 F= -.25399753E+04 E0= -.25399437E+04  d E =-.472851E+00  mag=   251.0000
       N       E                     dE             d eps       ncg     rms          rms(c)
DAV:   1    -0.253971820831E+04    0.25714E+00   -0.17899E+02  8240   0.133E+01    0.740E+00
RMM:   2    -0.254036084005E+04   -0.64263E+00   -0.81370E+00  7593   0.515E+00    0.683E+00
RMM:   3    -0.254063512819E+04   -0.27429E+00   -0.24117E+00  8679   0.158E+00    0.269E+00
RMM:   4    -0.254062374528E+04    0.11383E-01   -0.27600E-01  9062   0.610E-01    0.244E+00
RMM:   5    -0.254062397260E+04   -0.22732E-03   -0.10015E-01 10163   0.224E-01    0.183E+00
RMM:   6    -0.254061273370E+04    0.11239E-01   -0.47640E-02  8240   0.257E-01    0.137E+00
RMM:   7    -0.254061241562E+04    0.31807E-03   -0.40313E-02  8887   0.190E-01    0.443E-01
RMM:   8    -0.254061242525E+04   -0.96209E-05   -0.78040E-03  9704   0.813E-02    0.291E-01
RMM:   9    -0.254061188287E+04    0.54237E-03   -0.28242E-03  8095   0.459E-02    0.157E-01
RMM:  10    -0.254061181212E+04    0.70749E-04   -0.20915E-03  8056   0.451E-02    0.129E-01
RMM:  11    -0.254061183639E+04   -0.24263E-04   -0.53021E-04  5091   0.279E-02
  66 F= -.25406118E+04 E0= -.25405804E+04  d E =-.110937E+01  mag=   251.0000
       N       E                     dE             d eps       ncg     rms          rms(c)
DAV:   1    -0.253719242653E+04    0.34194E+01   -0.71289E+02  8080   0.266E+01    0.155E+01
RMM:   2    -0.253993596870E+04   -0.27435E+01   -0.33718E+01  7522   0.107E+01    0.146E+01
RMM:   3    -0.254109931210E+04   -0.11633E+01   -0.10249E+01  8745   0.329E+00    0.570E+00
RMM:   4    -0.254106115834E+04    0.38154E-01   -0.12818E+00  9123   0.124E+00    0.496E+00
RMM:   5    -0.254105340454E+04    0.77538E-02   -0.39794E-01 10169   0.467E-01    0.385E+00
RMM:   6    -0.254100841849E+04    0.44986E-01   -0.18618E-01  8391   0.470E-01    0.259E+00
RMM:   7    -0.254100810775E+04    0.31074E-03   -0.15354E-01  8878   0.365E-01    0.903E-01
RMM:   8    -0.254100874055E+04   -0.63280E-03   -0.31812E-02 10189   0.160E-01    0.623E-01
RMM:   9    -0.254100636111E+04    0.23794E-02   -0.11760E-02  9629   0.884E-02    0.365E-01
RMM:  10    -0.254100615436E+04    0.20675E-03   -0.87532E-03  9358   0.788E-02    0.265E-01
RMM:  11    -0.254100634875E+04   -0.19439E-03   -0.23470E-03  7828   0.413E-02    0.171E-01
RMM:  12    -0.254100626201E+04    0.86732E-04   -0.55790E-04  5181   0.368E-02
  67 F= -.25410063E+04 E0= -.25409714E+04  d E =-.150380E+01  mag=   251.0000
       N       E                     dE             d eps       ncg     rms          rms(c)
DAV:   1    -0.254079597675E+04    0.21037E+00   -0.14607E+02  7840   0.111E+01    0.520E+00
RMM:   2    -0.254130901937E+04   -0.51304E+00   -0.65475E+00  7835   0.433E+00    0.453E+00
RMM:   3    -0.254148787719E+04   -0.17886E+00   -0.16243E+00  8791   0.126E+00    0.175E+00
RMM:   4    -0.254148263134E+04    0.52459E-02   -0.18117E-01  9317   0.456E-01    0.145E+00
RMM:   5    -0.254148010028E+04    0.25311E-02   -0.61730E-02  9974   0.186E-01    0.105E+00
RMM:   6    -0.254147607882E+04    0.40215E-02   -0.35967E-02  8562   0.184E-01    0.724E-01
RMM:   7    -0.254147722042E+04   -0.11416E-02   -0.17354E-02  9569   0.109E-01    0.257E-01
RMM:   8    -0.254147699197E+04    0.22845E-03   -0.29260E-03  8032   0.461E-02    0.174E-01
RMM:   9    -0.254147684400E+04    0.14797E-03   -0.18935E-03  7329   0.422E-02    0.115E-01
RMM:  10    -0.254147689249E+04   -0.48485E-04   -0.10228E-03  6725   0.352E-02    0.924E-02
RMM:  11    -0.254147693634E+04   -0.43851E-04   -0.35679E-04  4226   0.280E-02
  68 F= -.25414769E+04 E0= -.25414434E+04  d E =-.470674E+00  mag=   251.0000
       N       E                     dE             d eps       ncg     rms          rms(c)
DAV:   1    -0.254028349559E+04    0.11934E+01   -0.35817E+02  7680   0.174E+01    0.796E+00
RMM:   2    -0.254155285833E+04   -0.12694E+01   -0.16370E+01  7904   0.679E+00    0.675E+00
RMM:   3    -0.254198226723E+04   -0.42941E+00   -0.38859E+00  8735   0.194E+00    0.265E+00
RMM:   4    -0.254196703055E+04    0.15237E-01   -0.42794E-01  9251   0.706E-01    0.211E+00
RMM:   5    -0.254195853990E+04    0.84906E-02   -0.14686E-01  9853   0.298E-01    0.159E+00
RMM:   6    -0.254195003723E+04    0.85027E-02   -0.84210E-02  8738   0.268E-01    0.101E+00
RMM:   7    -0.254195251904E+04   -0.24818E-02   -0.36617E-02  9730   0.154E-01    0.372E-01
RMM:   8    -0.254195201577E+04    0.50327E-03   -0.70256E-03  9889   0.663E-02    0.252E-01
RMM:   9    -0.254195175008E+04    0.26570E-03   -0.42349E-03  8612   0.507E-02    0.150E-01
RMM:  10    -0.254195186925E+04   -0.11918E-03   -0.19925E-03  8062   0.460E-02    0.135E-01
RMM:  11    -0.254195191794E+04   -0.48693E-04   -0.65266E-04  5048   0.289E-02
  69 F= -.25419519E+04 E0= -.25419225E+04  d E =-.945656E+00  mag=   251.0000
       N       E                     dE             d eps       ncg     rms          rms(c)
DAV:   1    -0.253495799891E+04    0.69939E+01   -0.14292E+03  7360   0.349E+01    0.149E+01
RMM:   2    -0.254027032146E+04   -0.53123E+01   -0.69845E+01  8086   0.137E+01    0.105E+01
RMM:   3    -0.254193224348E+04   -0.16619E+01   -0.15116E+01  8567   0.376E+00    0.456E+00
RMM:   4    -0.254183604092E+04    0.96203E-01   -0.16451E+00  8911   0.151E+00    0.381E+00
RMM:   5    -0.254179910626E+04    0.36935E-01   -0.59897E-01  9792   0.626E-01    0.271E+00
RMM:   6    -0.254176604097E+04    0.33065E-01   -0.29960E-01  9014   0.488E-01    0.152E+00
RMM:   7    -0.254177361508E+04   -0.75741E-02   -0.12886E-01  9861   0.275E-01    0.704E-01
RMM:   8    -0.254177257053E+04    0.10446E-02   -0.27207E-02 10389   0.128E-01    0.435E-01
RMM:   9    -0.254177220929E+04    0.36124E-03   -0.13784E-02  9997   0.871E-02    0.292E-01
RMM:  10    -0.254177250389E+04   -0.29460E-03   -0.59006E-03  9738   0.609E-02    0.172E-01
RMM:  11    -0.254177275029E+04   -0.24640E-03   -0.21456E-03  7371   0.421E-02    0.132E-01
RMM:  12    -0.254177286527E+04   -0.11498E-03   -0.93688E-04  5474   0.360E-02    0.750E-02
RMM:  13    -0.254177290286E+04   -0.37586E-04   -0.55957E-04  4570   0.291E-02
  70 F= -.25417729E+04 E0= -.25417516E+04  d E =-.766641E+00  mag=   251.0000
       N       E                     dE             d eps       ncg     rms          rms(c)
DAV:   1    -0.253896282975E+04    0.28100E+01   -0.59256E+02  7680   0.227E+01    0.128E+01
RMM:   2    -0.254127358353E+04   -0.23108E+01   -0.27712E+01  7497   0.952E+00    0.130E+01
RMM:   3    -0.254212949742E+04   -0.85591E+00   -0.78168E+00  8664   0.289E+00    0.480E+00
RMM:   4    -0.254211306623E+04    0.16431E-01   -0.94477E-01  9162   0.968E-01    0.368E+00
RMM:   5    -0.254209584812E+04    0.17218E-01   -0.27814E-01 10009   0.393E-01    0.296E+00
RMM:   6    -0.254207302501E+04    0.22823E-01   -0.11670E-01  8807   0.307E-01    0.162E+00
RMM:   7    -0.254207429503E+04   -0.12700E-02   -0.75450E-02  9077   0.240E-01    0.625E-01
RMM:   8    -0.254207365896E+04    0.63607E-03   -0.14448E-02  9859   0.114E-01    0.337E-01
RMM:   9    -0.254207322198E+04    0.43698E-03   -0.65146E-03  9634   0.556E-02    0.192E-01
RMM:  10    -0.254207311200E+04    0.10997E-03   -0.35342E-03  8921   0.517E-02    0.115E-01
RMM:  11    -0.254207316246E+04   -0.50458E-04   -0.92160E-04  6168   0.299E-02
  71 F= -.25420732E+04 E0= -.25420472E+04  d E =-.106690E+01  mag=   251.0000
       N       E                     dE             d eps       ncg     rms          rms(c)
DAV:   1    -0.254137760801E+04    0.69550E+00   -0.31496E+02  6560   0.159E+01    0.470E+00
RMM:   2    -0.254263895831E+04   -0.12614E+01   -0.12530E+01  7985   0.583E+00    0.375E+00
RMM:   3    -0.254295501455E+04   -0.31606E+00   -0.28238E+00  8751   0.158E+00    0.181E+00
RMM:   4    -0.254295560553E+04   -0.59098E-03   -0.35479E-01  9274   0.512E-01    0.151E+00
RMM:   5    -0.254295089598E+04    0.47096E-02   -0.11786E-01  9783   0.209E-01    0.120E+00
RMM:   6    -0.254294179097E+04    0.91050E-02   -0.71924E-02  8754   0.243E-01    0.723E-01
RMM:   7    -0.254294442476E+04   -0.26338E-02   -0.28757E-02  9692   0.127E-01    0.355E-01
RMM:   8    -0.254294404717E+04    0.37758E-03   -0.50033E-03  9139   0.612E-02    0.233E-01
RMM:   9    -0.254294372519E+04    0.32199E-03   -0.32840E-03  8139   0.499E-02    0.192E-01
RMM:  10    -0.254294363264E+04    0.92550E-04   -0.14027E-03  6998   0.402E-02    0.113E-01
RMM:  11    -0.254294366849E+04   -0.35856E-04   -0.63408E-04  4974   0.312E-02
  72 F= -.25429437E+04 E0= -.25429170E+04  d E =-.870506E+00  mag=   251.0000
       N       E                     dE             d eps       ncg     rms          rms(c)
DAV:   1    -0.253778772852E+04    0.51559E+01   -0.12069E+03  6480   0.312E+01    0.103E+01
RMM:   2    -0.254282503410E+04   -0.50373E+01   -0.50172E+01  7929   0.118E+01    0.906E+00
RMM:   3    -0.254414156196E+04   -0.13165E+01   -0.11889E+01  8744   0.327E+00    0.424E+00
RMM:   4    -0.254412253561E+04    0.19026E-01   -0.14036E+00  9339   0.106E+00    0.346E+00
RMM:   5    -0.254410153885E+04    0.20997E-01   -0.49271E-01  9854   0.428E-01    0.279E+00
RMM:   6    -0.254406172281E+04    0.39816E-01   -0.28006E-01  8838   0.479E-01    0.177E+00
RMM:   7    -0.254407099400E+04   -0.92712E-02   -0.12856E-01  9648   0.271E-01    0.829E-01
RMM:   8    -0.254406974341E+04    0.12506E-02   -0.21932E-02  9751   0.138E-01    0.475E-01
RMM:   9    -0.254406892500E+04    0.81840E-03   -0.13920E-02  9718   0.878E-02    0.362E-01
RMM:  10    -0.254406866103E+04    0.26397E-03   -0.66111E-03  9614   0.685E-02    0.240E-01
RMM:  11    -0.254406875747E+04   -0.96434E-04   -0.21402E-03  7183   0.380E-02    0.991E-02
RMM:  12    -0.254406880024E+04   -0.42777E-04   -0.83552E-04  5035   0.342E-02
  73 F= -.25440688E+04 E0= -.25440434E+04  d E =-.199564E+01  mag=   251.0000
       N       E                     dE             d eps       ncg     rms          rms(c)
DAV:   1    -0.251541190698E+04    0.28657E+02   -0.47687E+03  6400   0.623E+01    0.269E+01
RMM:   2    -0.253853630194E+04   -0.23124E+02   -0.23495E+02  7819   0.252E+01    0.268E+01
RMM:   3    -0.254447166236E+04   -0.59354E+01   -0.55194E+01  8810   0.718E+00    0.120E+01
RMM:   4    -0.254394137752E+04    0.53028E+00   -0.54471E+00  9186   0.250E+00    0.964E+00
RMM:   5    -0.254378910704E+04    0.15227E+00   -0.22560E+00  9843   0.976E-01    0.749E+00
RMM:   6    -0.254360410430E+04    0.18500E+00   -0.91346E-01  9050   0.886E-01    0.527E+00
RMM:   7    -0.254359261398E+04    0.11490E-01   -0.54069E-01  9397   0.577E-01    0.254E+00
RMM:   8    -0.254359665005E+04   -0.40361E-02   -0.12256E-01  9472   0.376E-01    0.116E+00
RMM:   9    -0.254359863028E+04   -0.19802E-02   -0.48989E-02 10414   0.155E-01    0.663E-01
RMM:  10    -0.254359786260E+04    0.76768E-03   -0.19174E-02 10190   0.111E-01    0.392E-01
RMM:  11    -0.254359827296E+04   -0.41036E-03   -0.87536E-03 10343   0.669E-02    0.206E-01
RMM:  12    -0.254359828820E+04   -0.15238E-04   -0.24160E-03  8095   0.526E-02    0.177E-01
RMM:  13    -0.254359838568E+04   -0.97476E-04   -0.20593E-03  6474   0.403E-02    0.975E-02
RMM:  14    -0.254359844453E+04   -0.58849E-04   -0.88825E-04  5394   0.413E-02
  74 F= -.25435984E+04 E0= -.25435788E+04  d E =-.152528E+01  mag=   251.0000
       N       E                     dE             d eps       ncg     rms          rms(c)
DAV:   1    -0.253338142834E+04    0.10217E+02   -0.21299E+03  6720   0.413E+01    0.151E+01
RMM:   2    -0.254241797392E+04   -0.90365E+01   -0.94255E+01  8061   0.154E+01    0.138E+01
RMM:   3    -0.254463289052E+04   -0.22149E+01   -0.20709E+01  8770   0.419E+00    0.473E+00
RMM:   4    -0.254444604188E+04    0.18685E+00   -0.24272E+00  8868   0.163E+00    0.333E+00
RMM:   5    -0.254438597535E+04    0.60067E-01   -0.90050E-01  9581   0.708E-01    0.285E+00
RMM:   6    -0.254434356775E+04    0.42408E-01   -0.39688E-01  9274   0.491E-01    0.174E+00
RMM:   7    -0.254434570432E+04   -0.21366E-02   -0.17425E-01  9713   0.316E-01    0.844E-01
RMM:   8    -0.254434442609E+04    0.12782E-02   -0.37822E-02  9724   0.185E-01    0.569E-01
RMM:   9    -0.254434561991E+04   -0.11938E-02   -0.20497E-02 10192   0.960E-02    0.320E-01
RMM:  10    -0.254434612485E+04   -0.50495E-03   -0.62374E-03  9761   0.636E-02    0.212E-01
RMM:  11    -0.254434632698E+04   -0.20213E-03   -0.23851E-03  7581   0.412E-02    0.166E-01
RMM:  12    -0.254434642641E+04   -0.99424E-04   -0.10946E-03  6346   0.384E-02    0.820E-02
RMM:  13    -0.254434651660E+04   -0.90190E-04   -0.83012E-04  5056   0.347E-02
  75 F= -.25443465E+04 E0= -.25443235E+04  d E =-.227335E+01  mag=   251.0000
       N       E                     dE             d eps       ncg     rms          rms(c)
DAV:   1    -0.254167337878E+04    0.26730E+01   -0.72205E+02  7360   0.246E+01    0.900E+00
RMM:   2    -0.254462999057E+04   -0.29566E+01   -0.29192E+01  7758   0.930E+00    0.786E+00
RMM:   3    -0.254550786122E+04   -0.87787E+00   -0.76997E+00  8709   0.273E+00    0.350E+00
RMM:   4    -0.254550445783E+04    0.34034E-02   -0.90797E-01  9404   0.885E-01    0.284E+00
RMM:   5    -0.254548189689E+04    0.22561E-01   -0.30512E-01  9521   0.384E-01    0.208E+00
RMM:   6    -0.254547149408E+04    0.10403E-01   -0.14886E-01  9068   0.335E-01    0.101E+00
RMM:   7    -0.254547619975E+04   -0.47057E-02   -0.52630E-02  9881   0.170E-01    0.484E-01
RMM:   8    -0.254547524142E+04    0.95833E-03   -0.11561E-02 10061   0.897E-02    0.311E-01
RMM:   9    -0.254547494159E+04    0.29983E-03   -0.65072E-03  9327   0.554E-02    0.207E-01
RMM:  10    -0.254547490549E+04    0.36098E-04   -0.30470E-03  8819   0.503E-02    0.101E-01
RMM:  11    -0.254547500554E+04   -0.10005E-03   -0.11827E-03  5808   0.306E-02    0.673E-02
RMM:  12    -0.254547503238E+04   -0.26839E-04   -0.41111E-04  4475   0.326E-02
  76 F= -.25454750E+04 E0= -.25454538E+04  d E =-.112852E+01  mag=   251.0000
       N       E                     dE             d eps       ncg     rms          rms(c)
DAV:   1    -0.253926622554E+04    0.62088E+01   -0.12563E+03  7040   0.325E+01    0.127E+01
RMM:   2    -0.254458454897E+04   -0.53183E+01   -0.52498E+01  7641   0.126E+01    0.115E+01
RMM:   3    -0.254620371537E+04   -0.16192E+01   -0.14298E+01  8713   0.379E+00    0.502E+00
RMM:   4    -0.254618311274E+04    0.20603E-01   -0.16139E+00  9438   0.122E+00    0.410E+00
RMM:   5    -0.254614389967E+04    0.39213E-01   -0.55296E-01  9655   0.511E-01    0.300E+00
RMM:   6    -0.254611905806E+04    0.24842E-01   -0.25383E-01  9061   0.447E-01    0.154E+00
RMM:   7    -0.254612692939E+04   -0.78713E-02   -0.10307E-01  9775   0.240E-01    0.712E-01
RMM:   8    -0.254612604693E+04    0.88247E-03   -0.20700E-02 10059   0.125E-01    0.428E-01
RMM:   9    -0.254612552252E+04    0.52441E-03   -0.11813E-02 10125   0.719E-02    0.278E-01
RMM:  10    -0.254612541064E+04    0.11188E-03   -0.57942E-03  9610   0.643E-02    0.152E-01
RMM:  11    -0.254612559589E+04   -0.18525E-03   -0.21658E-03  6809   0.375E-02    0.857E-02
RMM:  12    -0.254612564487E+04   -0.48979E-04   -0.72052E-04  5182   0.357E-02
  77 F= -.25461256E+04 E0= -.25461048E+04  d E =-.177913E+01  mag=   251.0000
       N       E                     dE             d eps       ncg     rms          rms(c)
DAV:   1    -0.254264513273E+04    0.34805E+01   -0.10279E+03  6960   0.285E+01    0.906E+00
RMM:   2    -0.254650296233E+04   -0.38578E+01   -0.43751E+01  7999   0.108E+01    0.543E+00
RMM:   3    -0.254749881962E+04   -0.99586E+00   -0.92504E+00  8666   0.288E+00    0.279E+00
RMM:   4    -0.254748748616E+04    0.11333E-01   -0.10778E+00  8941   0.103E+00    0.222E+00
RMM:   5    -0.254747113497E+04    0.16351E-01   -0.37166E-01  9717   0.421E-01    0.159E+00
RMM:   6    -0.254745076746E+04    0.20368E-01   -0.16591E-01  9193   0.355E-01    0.967E-01
RMM:   7    -0.254745483410E+04   -0.40666E-02   -0.86966E-02  9499   0.216E-01    0.588E-01
RMM:   8    -0.254745558107E+04   -0.74698E-03   -0.17027E-02 10040   0.114E-01    0.350E-01
RMM:   9    -0.254745559495E+04   -0.13871E-04   -0.95613E-03  9778   0.692E-02    0.245E-01
RMM:  10    -0.254745568463E+04   -0.89680E-04   -0.36278E-03  8852   0.499E-02    0.135E-01
RMM:  11    -0.254745589966E+04   -0.21504E-03   -0.19994E-03  6483   0.408E-02    0.889E-02
RMM:  12    -0.254745598793E+04   -0.88273E-04   -0.73711E-04  5015   0.387E-02
  78 F= -.25474560E+04 E0= -.25474339E+04  d E =-.133034E+01  mag=   251.0000
       N       E                     dE             d eps       ncg     rms          rms(c)
DAV:   1    -0.254462296318E+04    0.28329E+01   -0.71687E+02  7040   0.239E+01    0.769E+00
RMM:   2    -0.254734755825E+04   -0.27246E+01   -0.30612E+01  8070   0.901E+00    0.495E+00
RMM:   3    -0.254803048260E+04   -0.68292E+00   -0.62449E+00  8682   0.235E+00    0.235E+00
RMM:   4    -0.254802057176E+04    0.99108E-02   -0.72021E-01  9039   0.809E-01    0.186E+00
RMM:   5    -0.254800515291E+04    0.15419E-01   -0.24673E-01  9721   0.352E-01    0.137E+00
RMM:   6    -0.254799313107E+04    0.12022E-01   -0.11241E-01  9170   0.288E-01    0.778E-01
RMM:   7    -0.254799637463E+04   -0.32436E-02   -0.53176E-02  9617   0.171E-01    0.445E-01
RMM:   8    -0.254799659917E+04   -0.22453E-03   -0.10275E-02 10053   0.853E-02    0.278E-01
[...]
RMM:   7    -0.255090572922E+04   -0.66026E-03   -0.60819E-03  8849   0.720E-02    0.175E-01
RMM:   8    -0.255090546967E+04    0.25955E-03   -0.58862E-04  5216   0.364E-02    0.125E-01
RMM:   9    -0.255090535501E+04    0.11466E-03   -0.42966E-04  4476   0.284E-02    0.773E-02
RMM:  10    -0.255090534654E+04    0.84721E-05   -0.63389E-04  4941   0.306E-02
 102 F= -.25509053E+04 E0= -.25508779E+04  d E =-.173524E-01  mag=   251.0000
       N       E                     dE             d eps       ncg     rms          rms(c)
DAV:   1    -0.255088831748E+04    0.17038E-01   -0.29909E+00  7040   0.157E+00    0.591E-01
RMM:   2    -0.255090141740E+04   -0.13100E-01   -0.14041E-01  8157   0.626E-01    0.588E-01
RMM:   3    -0.255090445543E+04   -0.30380E-02   -0.27369E-02  8511   0.165E-01    0.242E-01
RMM:   4    -0.255090442408E+04    0.31354E-04   -0.31365E-03  7477   0.645E-02    0.205E-01
RMM:   5    -0.255090437412E+04    0.49956E-04   -0.59986E-04  5000   0.333E-02
 103 F= -.25509044E+04 E0= -.25508768E+04  d E =-.163800E-01  mag=   251.0000
       N       E                     dE             d eps       ncg     rms          rms(c)
DAV:   1    -0.255090361760E+04    0.80648E-03   -0.73653E-01  7680   0.801E-01    0.554E-01
RMM:   2    -0.255090895280E+04   -0.53352E-02   -0.37501E-02  7573   0.370E-01    0.414E-01
RMM:   3    -0.255091099056E+04   -0.20378E-02   -0.12864E-02  8125   0.117E-01    0.140E-01
RMM:   4    -0.255091101080E+04   -0.20233E-04   -0.13749E-03  6204   0.456E-02    0.106E-01
RMM:   5    -0.255091097349E+04    0.37311E-04   -0.19508E-04  3906   0.248E-02
 104 F= -.25509110E+04 E0= -.25508833E+04  d E =-.659936E-02  mag=   251.0000
       N       E                     dE             d eps       ncg     rms          rms(c)
DAV:   1    -0.255089102290E+04    0.19988E-01   -0.26630E+00  7360   0.151E+00    0.984E-01
RMM:   2    -0.255091016115E+04   -0.19138E-01   -0.13209E-01  7644   0.688E-01    0.683E-01
RMM:   3    -0.255091735756E+04   -0.71964E-02   -0.46035E-02  8446   0.214E-01    0.273E-01
RMM:   4    -0.255091746090E+04   -0.10334E-03   -0.58144E-03  7917   0.784E-02    0.204E-01
RMM:   5    -0.255091727231E+04    0.18859E-03   -0.10742E-03  6154   0.378E-02    0.165E-01
RMM:   6    -0.255091715037E+04    0.12194E-03   -0.81670E-04  5723   0.377E-02    0.972E-02
RMM:   7    -0.255091716755E+04   -0.17180E-04   -0.39562E-04  4388   0.332E-02
 105 F= -.25509172E+04 E0= -.25508895E+04  d E =-.127934E-01  mag=   251.0000
       N       E                     dE             d eps       ncg     rms          rms(c)
DAV:   1    -0.255091403437E+04    0.31160E-02   -0.14161E+00  7840   0.116E+00    0.392E-01
RMM:   2    -0.255092056918E+04   -0.65348E-02   -0.66685E-02  8048   0.454E-01    0.307E-01
RMM:   3    -0.255092255232E+04   -0.19831E-02   -0.17601E-02  8583   0.128E-01    0.155E-01
RMM:   4    -0.255092256233E+04   -0.10014E-04   -0.21814E-03  6823   0.517E-02    0.134E-01
RMM:   5    -0.255092251435E+04    0.47985E-04   -0.41890E-04  4472   0.289E-02
 106 F= -.25509225E+04 E0= -.25508950E+04  d E =-.534679E-02  mag=   251.0000
       N       E                     dE             d eps       ncg     rms          rms(c)
DAV:   1    -0.255090219099E+04    0.20371E-01   -0.44497E+00  7600   0.204E+00    0.699E-01
RMM:   2    -0.255092239196E+04   -0.20201E-01   -0.20512E-01  8044   0.796E-01    0.562E-01
RMM:   3    -0.255092841319E+04   -0.60212E-02   -0.53764E-02  8647   0.224E-01    0.285E-01
RMM:   4    -0.255092839890E+04    0.14286E-04   -0.70259E-03  8131   0.840E-02    0.231E-01
RMM:   5    -0.255092820587E+04    0.19303E-03   -0.19602E-03  7444   0.479E-02    0.174E-01
RMM:   6    -0.255092816811E+04    0.37759E-04   -0.13280E-03  6801   0.421E-02    0.111E-01
RMM:   7    -0.255092822839E+04   -0.60278E-04   -0.42163E-04  4359   0.339E-02
 107 F= -.25509282E+04 E0= -.25509011E+04  d E =-.110608E-01  mag=   251.0000
       N       E                     dE             d eps       ncg     rms          rms(c)
DAV:   1    -0.255081926433E+04    0.10890E+00   -0.17877E+01  7520   0.410E+00    0.139E+00
RMM:   2    -0.255090132423E+04   -0.82060E-01   -0.83243E-01  8025   0.161E+00    0.109E+00
RMM:   3    -0.255092600734E+04   -0.24683E-01   -0.21798E-01  8717   0.454E-01    0.538E-01
RMM:   4    -0.255092600623E+04    0.11112E-05   -0.27538E-02  9197   0.161E-01    0.451E-01
RMM:   5    -0.255092541423E+04    0.59201E-03   -0.73416E-03  9260   0.716E-02    0.340E-01
RMM:   6    -0.255092494244E+04    0.47178E-03   -0.46910E-03  8789   0.666E-02    0.202E-01
RMM:   7    -0.255092516020E+04   -0.21775E-03   -0.19303E-03  7573   0.417E-02    0.134E-01
RMM:   8    -0.255092516112E+04   -0.92419E-06   -0.24321E-04  4039   0.288E-02
 108 F= -.25509252E+04 E0= -.25508987E+04  d E =-.799357E-02  mag=   251.0000
       N       E                     dE             d eps       ncg     rms          rms(c)
DAV:   1    -0.255090200193E+04    0.23158E-01   -0.47989E+00  7680   0.212E+00    0.714E-01
RMM:   2    -0.255092351971E+04   -0.21518E-01   -0.21792E-01  8007   0.831E-01    0.604E-01
RMM:   3    -0.255092968907E+04   -0.61694E-02   -0.54853E-02  8530   0.233E-01    0.284E-01
RMM:   4    -0.255092957116E+04    0.11791E-03   -0.65193E-03  7896   0.848E-02    0.228E-01
RMM:   5    -0.255092929390E+04    0.27725E-03   -0.14812E-03  6765   0.457E-02    0.179E-01
RMM:   6    -0.255092913653E+04    0.15737E-03   -0.14426E-03  6724   0.435E-02    0.105E-01
RMM:   7    -0.255092916852E+04   -0.31992E-04   -0.42217E-04  4396   0.330E-02
 109 F= -.25509292E+04 E0= -.25509023E+04  d E =-.120010E-01  mag=   251.0000
       N       E                     dE             d eps       ncg     rms          rms(c)
DAV:   1    -0.255092505777E+04    0.40788E-02   -0.69756E-01  7840   0.814E-01    0.294E-01
RMM:   2    -0.255092834411E+04   -0.32863E-02   -0.33757E-02  8067   0.322E-01    0.245E-01
RMM:   3    -0.255092937441E+04   -0.10303E-02   -0.90076E-03  8440   0.913E-02    0.114E-01
RMM:   4    -0.255092937274E+04    0.16706E-05   -0.10147E-03  5464   0.403E-02    0.976E-02
RMM:   5    -0.255092935728E+04    0.15459E-04   -0.20300E-04  3932   0.253E-02
 110 F= -.25509294E+04 E0= -.25509024E+04  d E =-.121897E-01  mag=   251.0000
       N       E                     dE             d eps       ncg     rms          rms(c)
DAV:   1    -0.255092336917E+04    0.60036E-02   -0.20352E+00  7440   0.132E+00    0.491E-01
RMM:   2    -0.255093265254E+04   -0.92834E-02   -0.89542E-02  8060   0.509E-01    0.400E-01
RMM:   3    -0.255093490097E+04   -0.22484E-02   -0.18503E-02  8410   0.137E-01    0.165E-01
RMM:   4    -0.255093488940E+04    0.11568E-04   -0.22167E-03  7095   0.576E-02    0.145E-01
RMM:   5    -0.255093484110E+04    0.48305E-04   -0.34623E-04  4320   0.280E-02
 111 F= -.25509348E+04 E0= -.25509081E+04  d E =-.548381E-02  mag=   251.0000
       N       E                     dE             d eps       ncg     rms          rms(c)
DAV:   1    -0.255084183882E+04    0.93051E-01   -0.18149E+01  7280   0.395E+00    0.149E+00
RMM:   2    -0.255092408325E+04   -0.82244E-01   -0.78996E-01  8035   0.152E+00    0.120E+00
RMM:   3    -0.255094537809E+04   -0.21295E-01   -0.17929E-01  8694   0.412E-01    0.519E-01
RMM:   4    -0.255094532651E+04    0.51580E-04   -0.23582E-02  8689   0.160E-01    0.437E-01
RMM:   5    -0.255094505350E+04    0.27300E-03   -0.71231E-03  8811   0.705E-02    0.317E-01
RMM:   6    -0.255094477108E+04    0.28242E-03   -0.48783E-03  8666   0.757E-02    0.202E-01
RMM:   7    -0.255094495902E+04   -0.18794E-03   -0.15268E-03  7091   0.382E-02    0.107E-01
RMM:   8    -0.255094491755E+04    0.41474E-04   -0.23435E-04  4047   0.333E-02
 112 F= -.25509449E+04 E0= -.25509190E+04  d E =-.155603E-01  mag=   251.0000
       N       E                     dE             d eps       ncg     rms          rms(c)
DAV:   1    -0.255093574060E+04    0.92184E-02   -0.26713E+00  8080   0.155E+00    0.908E-01
RMM:   2    -0.255094590575E+04   -0.10165E-01   -0.13347E-01  7563   0.678E-01    0.914E-01
RMM:   3    -0.255095034343E+04   -0.44377E-02   -0.40289E-02  8518   0.208E-01    0.360E-01
RMM:   4    -0.255095037333E+04   -0.29895E-04   -0.48471E-03  8109   0.786E-02    0.292E-01
RMM:   5    -0.255095036622E+04    0.71078E-05   -0.13385E-03  6846   0.365E-02    0.227E-01
RMM:   6    -0.255095028135E+04    0.84874E-04   -0.95764E-04  6027   0.458E-02
 113 F= -.25509503E+04 E0= -.25509248E+04  d E =-.536380E-02  mag=   251.0000
       N       E                     dE             d eps       ncg     rms          rms(c)
DAV:   1    -0.255082124574E+04    0.12912E+00   -0.23860E+01  7840   0.464E+00    0.268E+00
RMM:   2    -0.255091008850E+04   -0.88843E-01   -0.11764E+00  7558   0.202E+00    0.267E+00
RMM:   3    -0.255094922705E+04   -0.39139E-01   -0.35350E-01  8490   0.618E-01    0.103E+00
RMM:   4    -0.255094953550E+04   -0.30844E-03   -0.42694E-02  8873   0.229E-01    0.830E-01
RMM:   5    -0.255094957799E+04   -0.42494E-04   -0.13454E-02  9474   0.873E-02    0.650E-01
RMM:   6    -0.255094872269E+04    0.85530E-03   -0.86571E-03  8332   0.108E-01    0.439E-01
RMM:   7    -0.255094912067E+04   -0.39797E-03   -0.49586E-03  9022   0.656E-02    0.149E-01
RMM:   8    -0.255094895734E+04    0.16332E-03   -0.59021E-04  5299   0.333E-02    0.109E-01
RMM:   9    -0.255094889931E+04    0.58032E-04   -0.37538E-04  4436   0.281E-02
 114 F= -.25509489E+04 E0= -.25509250E+04  d E =-.398176E-02  mag=   251.0000
       N       E                     dE             d eps       ncg     rms          rms(c)
DAV:   1    -0.255091834669E+04    0.30611E-01   -0.67147E+00  8080   0.247E+00    0.148E+00
RMM:   2    -0.255094281745E+04   -0.24471E-01   -0.32628E-01  7494   0.108E+00    0.151E+00
RMM:   3    -0.255095350145E+04   -0.10684E-01   -0.96953E-02  8390   0.333E-01    0.587E-01
RMM:   4    -0.255095351700E+04   -0.15553E-04   -0.11502E-02  8421   0.123E-01    0.459E-01
RMM:   5    -0.255095345995E+04    0.57052E-04   -0.33282E-03  8290   0.494E-02    0.369E-01
RMM:   6    -0.255095308571E+04    0.37424E-03   -0.22510E-03  7435   0.598E-02    0.232E-01
RMM:   7    -0.255095309544E+04   -0.97253E-05   -0.11044E-03  6513   0.406E-02    0.797E-02
RMM:   8    -0.255095307252E+04    0.22916E-04   -0.18792E-04  3839   0.274E-02
 115 F= -.25509531E+04 E0= -.25509283E+04  d E =-.815498E-02  mag=   251.0000
       N       E                     dE             d eps       ncg     rms          rms(c)
DAV:   1    -0.255095115868E+04    0.19368E-02   -0.86073E-01  7920   0.857E-01    0.306E-01
RMM:   2    -0.255095464293E+04   -0.34843E-02   -0.36444E-02  8001   0.329E-01    0.303E-01
RMM:   3    -0.255095545553E+04   -0.81259E-03   -0.73569E-03  8113   0.891E-02    0.121E-01
RMM:   4    -0.255095541957E+04    0.35954E-04   -0.74890E-04  5152   0.382E-02
 116 F= -.25509554E+04 E0= -.25509309E+04  d E =-.234705E-02  mag=   251.0000
       N       E                     dE             d eps       ncg     rms          rms(c)
DAV:   1    -0.255092021847E+04    0.35237E-01   -0.77399E+00  7680   0.257E+00    0.910E-01
RMM:   2    -0.255095219562E+04   -0.31977E-01   -0.33743E-01  8048   0.995E-01    0.843E-01
RMM:   3    -0.255096048338E+04   -0.82878E-02   -0.76241E-02  8685   0.269E-01    0.378E-01
RMM:   4    -0.255096036958E+04    0.11380E-03   -0.10210E-02  8221   0.100E-01    0.322E-01
RMM:   5    -0.255096023896E+04    0.13062E-03   -0.31749E-03  7827   0.515E-02    0.234E-01
RMM:   6    -0.255096011736E+04    0.12160E-03   -0.26803E-03  8027   0.599E-02    0.157E-01
RMM:   7    -0.255096018408E+04   -0.66722E-04   -0.63292E-04  5386   0.341E-02
 117 F= -.25509602E+04 E0= -.25509363E+04  d E =-.711156E-02  mag=   251.0000
       N       E                     dE             d eps       ncg     rms          rms(c)
DAV:   1    -0.255079620456E+04    0.16391E+00   -0.30949E+01  7360   0.515E+00    0.193E+00
RMM:   2    -0.255092637917E+04   -0.13017E+00   -0.13674E+00  8038   0.201E+00    0.184E+00
RMM:   3    -0.255096024655E+04   -0.33867E-01   -0.30712E-01  8701   0.546E-01    0.733E-01
RMM:   4    -0.255096019574E+04    0.50806E-04   -0.40194E-02  8917   0.195E-01    0.605E-01
RMM:   5    -0.255095997800E+04    0.21774E-03   -0.12597E-02  9226   0.827E-02    0.448E-01
RMM:   6    -0.255095929201E+04    0.68599E-03   -0.81988E-03  8594   0.968E-02    0.321E-01
RMM:   7    -0.255095969469E+04   -0.40268E-03   -0.39211E-03  8914   0.558E-02    0.151E-01
RMM:   8    -0.255095956057E+04    0.13412E-03   -0.45237E-04  4846   0.308E-02    0.119E-01
RMM:   9    -0.255095950245E+04    0.58117E-04   -0.24701E-04  4120   0.243E-02
 118 F= -.25509595E+04 E0= -.25509370E+04  d E =-.642993E-02  mag=   251.0000
       N       E                     dE             d eps       ncg     rms          rms(c)
DAV:   1    -0.255090353926E+04    0.56021E-01   -0.11566E+01  7440   0.314E+00    0.108E+00
RMM:   2    -0.255094993210E+04   -0.46393E-01   -0.49429E-01  8030   0.120E+00    0.942E-01
RMM:   3    -0.255096183366E+04   -0.11902E-01   -0.10846E-01  8604   0.326E-01    0.402E-01
RMM:   4    -0.255096181671E+04    0.16948E-04   -0.13634E-02  8320   0.121E-01    0.349E-01
RMM:   5    -0.255096166096E+04    0.15575E-03   -0.38314E-03  8027   0.541E-02    0.251E-01
RMM:   6    -0.255096141641E+04    0.24455E-03   -0.29666E-03  8130   0.626E-02    0.174E-01
RMM:   7    -0.255096155010E+04   -0.13368E-03   -0.91027E-04  6045   0.347E-02    0.998E-02
RMM:   8    -0.255096154187E+04    0.82263E-05   -0.16258E-04  3807   0.327E-02
 119 F= -.25509615E+04 E0= -.25509382E+04  d E =-.846935E-02  mag=   251.0000
       N       E                     dE             d eps       ncg     rms          rms(c)
DAV:   1    -0.255095788736E+04    0.36627E-02   -0.14194E+00  7680   0.109E+00    0.482E-01
RMM:   2    -0.255096454907E+04   -0.66617E-02   -0.61687E-02  8003   0.430E-01    0.383E-01
RMM:   3    -0.255096633577E+04   -0.17867E-02   -0.13705E-02  8248   0.118E-01    0.148E-01
RMM:   4    -0.255096631853E+04    0.17242E-04   -0.16839E-03  6710   0.498E-02    0.109E-01
RMM:   5    -0.255096623347E+04    0.85059E-04   -0.31026E-04  4126   0.272E-02
 120 F= -.25509662E+04 E0= -.25509429E+04  d E =-.469160E-02  mag=   251.0000
       N       E                     dE             d eps       ncg     rms          rms(c)
DAV:   1    -0.255089359424E+04    0.72724E-01   -0.12742E+01  7360   0.327E+00    0.147E+00
RMM:   2    -0.255095483905E+04   -0.61245E-01   -0.56677E-01  8022   0.130E+00    0.120E+00
RMM:   3    -0.255097211898E+04   -0.17280E-01   -0.13476E-01  8683   0.354E-01    0.467E-01
RMM:   4    -0.255097204263E+04    0.76348E-04   -0.17768E-02  8442   0.135E-01    0.351E-01
RMM:   5    -0.255097167637E+04    0.36626E-03   -0.58626E-03  8818   0.662E-02    0.276E-01
RMM:   6    -0.255097151529E+04    0.16108E-03   -0.28656E-03  8394   0.538E-02    0.150E-01
RMM:   7    -0.255097159143E+04   -0.76139E-04   -0.83138E-04  5851   0.332E-02
 121 F= -.25509716E+04 E0= -.25509482E+04  d E =-.100496E-01  mag=   251.0000
       N       E                     dE             d eps       ncg     rms          rms(c)
DAV:   1    -0.255095590596E+04    0.15609E-01   -0.34316E+00  7520   0.170E+00    0.809E-01
RMM:   2    -0.255097044359E+04   -0.14538E-01   -0.17689E-01  7804   0.743E-01    0.877E-01
RMM:   3    -0.255097530022E+04   -0.48566E-02   -0.44818E-02  8873   0.216E-01    0.340E-01
RMM:   4    -0.255097537778E+04   -0.77561E-04   -0.57733E-03  8611   0.727E-02    0.235E-01
RMM:   5    -0.255097528494E+04    0.92848E-04   -0.15080E-03  7017   0.398E-02    0.191E-01
RMM:   6    -0.255097528177E+04    0.31644E-05   -0.11732E-03  6368   0.385E-02    0.106E-01
RMM:   7    -0.255097533653E+04   -0.54762E-04   -0.33105E-04  4117   0.318E-02
 122 F= -.25509753E+04 E0= -.25509518E+04  d E =-.374511E-02  mag=   251.0000
       N       E                     dE             d eps       ncg     rms          rms(c)
DAV:   1    -0.255086408472E+04    0.11120E+00   -0.19634E+01  7040   0.407E+00    0.193E+00
RMM:   2    -0.255094610969E+04   -0.82025E-01   -0.99383E-01  7740   0.179E+00    0.211E+00
RMM:   3    -0.255097439600E+04   -0.28286E-01   -0.26051E-01  8772   0.527E-01    0.797E-01
RMM:   4    -0.255097489218E+04   -0.49619E-03   -0.33323E-02  9280   0.173E-01    0.551E-01
RMM:   5    -0.255097432995E+04    0.56223E-03   -0.92571E-03  9252   0.794E-02    0.446E-01
RMM:   6    -0.255097414271E+04    0.18725E-03   -0.61868E-03  9033   0.748E-02    0.242E-01
RMM:   7    -0.255097443551E+04   -0.29281E-03   -0.21154E-03  8233   0.397E-02    0.122E-01
RMM:   8    -0.255097435294E+04    0.82571E-04   -0.27280E-04  4089   0.287E-02
 123 F= -.25509744E+04 E0= -.25509506E+04  d E =-.276151E-02  mag=   251.0000
       N       E                     dE             d eps       ncg     rms          rms(c)
DAV:   1    -0.255095514553E+04    0.19290E-01   -0.40146E+00  7520   0.184E+00    0.887E-01
RMM:   2    -0.255097177948E+04   -0.16634E-01   -0.19938E-01  7757   0.803E-01    0.997E-01
RMM:   3    -0.255097692176E+04   -0.51423E-02   -0.47443E-02  8526   0.232E-01    0.392E-01
RMM:   4    -0.255097688812E+04    0.33643E-04   -0.57560E-03  8344   0.783E-02    0.254E-01
RMM:   5    -0.255097665802E+04    0.23010E-03   -0.14392E-03  6939   0.439E-02    0.224E-01
RMM:   6    -0.255097655355E+04    0.10447E-03   -0.12757E-03  6394   0.396E-02    0.123E-01
RMM:   7    -0.255097656668E+04   -0.13129E-04   -0.32782E-04  4051   0.301E-02
 124 F= -.25509766E+04 E0= -.25509529E+04  d E =-.497525E-02  mag=   251.0000
       N       E                     dE             d eps       ncg     rms          rms(c)
DAV:   1    -0.255097876055E+04   -0.22070E-02   -0.10538E+00  9440   0.115E+00    0.901E-01
RMM:   2    -0.255097863026E+04    0.13029E-03   -0.66303E-02  7645   0.488E-01    0.751E-01
RMM:   3    -0.255098113648E+04   -0.25062E-02   -0.24904E-02  8558   0.160E-01    0.286E-01
RMM:   4    -0.255098092317E+04    0.21331E-03   -0.36641E-03  7996   0.717E-02    0.226E-01
RMM:   5    -0.255098079183E+04    0.13134E-03   -0.59593E-04  5019   0.368E-02    0.169E-01
RMM:   6    -0.255098072094E+04    0.70893E-04   -0.32233E-04  4089   0.330E-02
 125 F= -.25509807E+04 E0= -.25509570E+04  d E =-.415425E-02  mag=   251.0000
       N       E                     dE             d eps       ncg     rms          rms(c)
DAV:   1    -0.255098066799E+04    0.12384E-03   -0.52349E-02  9920   0.261E-01    0.214E-01
RMM:   2    -0.255098064427E+04    0.23723E-04   -0.34690E-03  7614   0.109E-01    0.166E-01
RMM:   3    -0.255098076306E+04   -0.11880E-03   -0.12085E-03  6236   0.376E-02    0.721E-02
RMM:   4    -0.255098075352E+04    0.95408E-05   -0.19349E-04  3909   0.286E-02
 126 F= -.25509808E+04 E0= -.25509570E+04  d E =-.418684E-02  mag=   251.0000
       N       E                     dE             d eps       ncg     rms          rms(c)
DAV:   1    -0.255098514787E+04   -0.43848E-02   -0.39872E-01  8880   0.732E-01    0.628E-01
RMM:   2    -0.255098157394E+04    0.35739E-02   -0.29630E-02  8029   0.287E-01    0.421E-01
RMM:   3    -0.255098183784E+04   -0.26389E-03   -0.93100E-03  8181   0.990E-02    0.188E-01
RMM:   4    -0.255098167193E+04    0.16590E-03   -0.12525E-03  6472   0.546E-02    0.148E-01
RMM:   5    -0.255098165154E+04    0.20391E-04   -0.35313E-04  4122   0.329E-02
 127 F= -.25509817E+04 E0= -.25509577E+04  d E =-.898021E-03  mag=   251.0000
       N       E                     dE             d eps       ncg     rms          rms(c)
DAV:   1    -0.255098211575E+04   -0.44382E-03   -0.10229E-01  8960   0.376E-01    0.324E-01
RMM:   2    -0.255098119565E+04    0.92010E-03   -0.75570E-03  8117   0.140E-01    0.237E-01
RMM:   3    -0.255098123819E+04   -0.42533E-04   -0.22101E-03  7423   0.504E-02    0.149E-01
RMM:   4    -0.255098120429E+04    0.33897E-04   -0.38008E-04  4376   0.375E-02
 128 F= -.25509812E+04 E0= -.25509571E+04  d E =-.450767E-03  mag=   251.0000
