       N       E                     dE             d eps       ncg     rms          rms(c)
DAV:   1     0.402086363895E+05    0.40209E+05   -0.85962E+05  6800   0.262E+03
DAV:   2     0.145663593221E+05   -0.25642E+05   -0.22907E+05  6640   0.689E+02
DAV:   3     0.346108629604E+04   -0.11105E+05   -0.10002E+05  7040   0.356E+02
DAV:   4    -0.164958045705E+04   -0.51107E+04   -0.47414E+04  9760   0.202E+02
DAV:   5    -0.283283275849E+04   -0.11833E+04   -0.11488E+04 10800   0.106E+02    0.216E+02
RMM:   6    -0.250238824357E+04    0.33044E+03   -0.76143E+03  8774   0.110E+02    0.340E+02
RMM:   7    -0.257072376649E+04   -0.68336E+02   -0.17955E+03  9353   0.362E+01    0.190E+02
RMM:   8    -0.246645956294E+04    0.10426E+03   -0.12022E+03  7305   0.551E+01    0.999E+01
RMM:   9    -0.254320334533E+04   -0.76744E+02   -0.76038E+02  8658   0.195E+01    0.678E+01
RMM:  10    -0.254242090420E+04    0.78244E+00   -0.18274E+02  8319   0.139E+01    0.369E+01
RMM:  11    -0.253802432958E+04    0.43966E+01   -0.10466E+02  9354   0.818E+00    0.230E+01
RMM:  12    -0.253722107955E+04    0.80325E+00   -0.35706E+01  9694   0.458E+00    0.193E+01
RMM:  13    -0.253725104396E+04   -0.29964E-01   -0.98892E+00 10259   0.171E+00    0.183E+01
RMM:  14    -0.253696142422E+04    0.28962E+00   -0.59114E+00  8636   0.222E+00    0.169E+01
RMM:  15    -0.253692978811E+04    0.31636E-01   -0.47126E+00  8838   0.199E+00    0.134E+01
RMM:  16    -0.253657464583E+04    0.35514E+00   -0.15776E+00  9591   0.846E-01    0.115E+01
RMM:  17    -0.253620122215E+04    0.37342E+00   -0.96230E-01  9088   0.752E-01    0.959E+00
RMM:  18    -0.253594367333E+04    0.25755E+00   -0.23709E+00  9064   0.118E+00    0.569E+00
RMM:  19    -0.253596251184E+04   -0.18839E-01   -0.70792E-01  9563   0.741E-01    0.355E+00
RMM:  20    -0.253597721142E+04   -0.14700E-01   -0.22605E-01  8744   0.386E-01    0.254E+00
RMM:  21    -0.253598410402E+04   -0.68926E-02   -0.11161E-01  8926   0.270E-01    0.177E+00
RMM:  22    -0.253599073709E+04   -0.66331E-02   -0.64761E-02  9165   0.140E-01    0.125E+00
RMM:  23    -0.253599133482E+04   -0.59773E-03   -0.42640E-02  8526   0.148E-01    0.735E-01
RMM:  24    -0.253599326203E+04   -0.19272E-02   -0.38847E-02  8602   0.135E-01    0.252E-01
RMM:  25    -0.253599453840E+04   -0.12764E-02   -0.18947E-02  6599   0.101E-01    0.180E-01
RMM:  26    -0.253599574563E+04   -0.12072E-02   -0.15615E-02  6708   0.795E-02    0.908E-02
RMM:  27    -0.253599690780E+04   -0.11622E-02   -0.12786E-02  6231   0.588E-02    0.853E-02
RMM:  28    -0.253599783052E+04   -0.92272E-03   -0.95347E-03  5364   0.557E-02    0.794E-02
RMM:  29    -0.253599831754E+04   -0.48702E-03   -0.48622E-03  4749   0.519E-02    0.618E-02
RMM:  30    -0.253599887783E+04   -0.56029E-03   -0.56405E-03  4491   0.407E-02    0.583E-02
RMM:  31    -0.253599920892E+04   -0.33109E-03   -0.34021E-03  4404   0.393E-02    0.424E-02
RMM:  32    -0.253599951843E+04   -0.30952E-03   -0.31934E-03  4456   0.311E-02    0.392E-02
RMM:  33    -0.253599976106E+04   -0.24263E-03   -0.24239E-03  4481   0.284E-02    0.164E-02
RMM:  34    -0.253599995790E+04   -0.19683E-03   -0.20414E-03  4434   0.254E-02    0.124E-02
RMM:  35    -0.253600007837E+04   -0.12047E-03   -0.12094E-03  4353   0.207E-02    0.836E-03
RMM:  36    -0.253600021596E+04   -0.13759E-03   -0.13964E-03  4322   0.184E-02    0.890E-03
RMM:  37    -0.253600030036E+04   -0.84394E-04   -0.85277E-04  4222   0.167E-02
   1 F= -.25360003E+04 E0= -.25359468E+04  d E =-.253600E+04  mag=   254.0006
       N       E                     dE             d eps       ncg     rms          rms(c)
DAV:   1    -0.253492163340E+04    0.10786E+01   -0.12441E+02  6960   0.908E+00    0.845E+00
RMM:   2    -0.253597363325E+04   -0.10520E+01   -0.61559E+00  7704   0.417E+00    0.642E+00
RMM:   3    -0.253634243914E+04   -0.36881E+00   -0.21687E+00  8607   0.135E+00    0.295E+00
RMM:   4    -0.253634982564E+04   -0.73865E-02   -0.27763E-01  9141   0.571E-01    0.197E+00
RMM:   5    -0.253634038203E+04    0.94436E-02   -0.82277E-02  9685   0.207E-01    0.134E+00
RMM:   6    -0.253632989622E+04    0.10486E-01   -0.38868E-02  8735   0.175E-01    0.834E-01
RMM:   7    -0.253632901032E+04    0.88590E-03   -0.31463E-02  8865   0.162E-01    0.761E-01
RMM:   8    -0.253632986110E+04   -0.85077E-03   -0.97208E-03  9322   0.825E-02    0.240E-01
RMM:   9    -0.253632971049E+04    0.15060E-03   -0.20162E-03  6778   0.552E-02    0.267E-01
RMM:  10    -0.253632973156E+04   -0.21068E-04   -0.73922E-04  5137   0.341E-02
   2 F= -.25363297E+04 E0= -.25362744E+04  d E =-.329431E+00  mag=   254.0001
       N       E                     dE             d eps       ncg     rms          rms(c)
DAV:   1    -0.253631452390E+04    0.15187E-01   -0.18541E+00  7040   0.114E+00    0.110E+00
RMM:   2    -0.253633062749E+04   -0.16104E-01   -0.10159E-01  7608   0.532E-01    0.800E-01
RMM:   3    -0.253633637919E+04   -0.57517E-02   -0.33218E-02  8573   0.167E-01    0.359E-01
RMM:   4    -0.253633629359E+04    0.85601E-04   -0.36466E-03  7782   0.705E-02    0.242E-01
RMM:   5    -0.253633606696E+04    0.22663E-03   -0.88737E-04  5203   0.306E-02    0.171E-01
RMM:   6    -0.253633586378E+04    0.20318E-03   -0.89421E-04  5645   0.396E-02    0.146E-01
RMM:   7    -0.253633583806E+04    0.25719E-04   -0.51801E-04  4874   0.336E-02
   3 F= -.25363358E+04 E0= -.25362808E+04  d E =-.335538E+00  mag=   254.0000
       N       E                     dE             d eps       ncg     rms          rms(c)
DAV:   1    -0.253626765574E+04    0.68208E-01   -0.21870E+01  6800   0.425E+00    0.300E+00
RMM:   2    -0.253637801509E+04   -0.11036E+00   -0.14752E+00  7603   0.205E+00    0.269E+00
RMM:   3    -0.253642591303E+04   -0.47898E-01   -0.41066E-01  8784   0.627E-01    0.109E+00
RMM:   4    -0.253642475643E+04    0.11566E-02   -0.51286E-02  9174   0.225E-01    0.887E-01
RMM:   5    -0.253642321270E+04    0.15437E-02   -0.13643E-02  9407   0.951E-02    0.660E-01
RMM:   6    -0.253642173060E+04    0.14821E-02   -0.11339E-02  8514   0.988E-02    0.297E-01
RMM:   7    -0.253642202533E+04   -0.29473E-03   -0.36531E-03  8367   0.561E-02    0.232E-01
RMM:   8    -0.253642191130E+04    0.11403E-03   -0.47604E-04  4537   0.341E-02    0.109E-01
RMM:   9    -0.253642182310E+04    0.88198E-04   -0.22513E-04  3899   0.277E-02
   4 F= -.25364218E+04 E0= -.25363649E+04  d E =-.859850E-01  mag=   254.0000
       N       E                     dE             d eps       ncg     rms          rms(c)
DAV:   1    -0.253640350389E+04    0.18407E-01   -0.54598E+00  6960   0.212E+00    0.151E+00
RMM:   2    -0.253643158838E+04   -0.28084E-01   -0.37297E-01  7614   0.102E+00    0.136E+00
RMM:   3    -0.253644384531E+04   -0.12257E-01   -0.10445E-01  8815   0.313E-01    0.549E-01
RMM:   4    -0.253644362363E+04    0.22168E-03   -0.13549E-02  9094   0.114E-01    0.443E-01
RMM:   5    -0.253644325219E+04    0.37145E-03   -0.35044E-03  8451   0.491E-02    0.336E-01
RMM:   6    -0.253644288962E+04    0.36257E-03   -0.27959E-03  7567   0.526E-02    0.148E-01
RMM:   7    -0.253644294194E+04   -0.52320E-04   -0.76289E-04  5556   0.346E-02
   5 F= -.25364429E+04 E0= -.25363852E+04  d E =-.107104E+00  mag=   254.0000
       N       E                     dE             d eps       ncg     rms          rms(c)
DAV:   1    -0.253628753291E+04    0.15536E+00   -0.21553E+01  6720   0.424E+00    0.301E+00
RMM:   2    -0.253639589854E+04   -0.10837E+00   -0.14747E+00  7627   0.203E+00    0.269E+00
RMM:   3    -0.253644442408E+04   -0.48526E-01   -0.41680E-01  8812   0.622E-01    0.108E+00
RMM:   4    -0.253644371319E+04    0.71089E-03   -0.53931E-02  9209   0.227E-01    0.921E-01
RMM:   5    -0.253644246845E+04    0.12447E-02   -0.14404E-02  9591   0.922E-02    0.656E-01
RMM:   6    -0.253644094271E+04    0.15257E-02   -0.10827E-02  8563   0.967E-02    0.336E-01
RMM:   7    -0.253644122984E+04   -0.28713E-03   -0.39145E-03  8477   0.583E-02    0.267E-01
RMM:   8    -0.253644116786E+04    0.61974E-04   -0.65100E-04  5091   0.331E-02
   6 F= -.25364412E+04 E0= -.25363825E+04  d E =-.105330E+00  mag=   254.0000
       N       E                     dE             d eps       ncg     rms          rms(c)
DAV:   1    -0.253641426482E+04    0.26965E-01   -0.52452E+00  6880   0.209E+00    0.147E+00
RMM:   2    -0.253643950321E+04   -0.25238E-01   -0.34622E-01  7615   0.991E-01    0.131E+00
RMM:   3    -0.253645036480E+04   -0.10862E-01   -0.94086E-02  8781   0.301E-01    0.508E-01
RMM:   4    -0.253644992574E+04    0.43906E-03   -0.11406E-02  8710   0.110E-01    0.398E-01
RMM:   5    -0.253644947250E+04    0.45323E-03   -0.30881E-03  7960   0.521E-02    0.324E-01
RMM:   6    -0.253644922906E+04    0.24344E-03   -0.22212E-03  7311   0.478E-02    0.140E-01
RMM:   7    -0.253644930277E+04   -0.73714E-04   -0.57155E-04  5073   0.325E-02
   7 F= -.25364493E+04 E0= -.25363911E+04  d E =-.113465E+00  mag=   254.0000
       N       E                     dE             d eps       ncg     rms          rms(c)
DAV:   1    -0.253633303781E+04    0.11619E+00   -0.28938E+01  6880   0.525E+00    0.462E+00
RMM:   2    -0.253640918368E+04   -0.76146E-01   -0.20966E+00  7532   0.258E+00    0.391E+00
RMM:   3    -0.253648206967E+04   -0.72886E-01   -0.65363E-01  8580   0.807E-01    0.155E+00
RMM:   4    -0.253647915272E+04    0.29169E-02   -0.87978E-02  8922   0.335E-01    0.142E+00
RMM:   5    -0.253647742835E+04    0.17244E-02   -0.24819E-02  9970   0.125E-01    0.934E-01
RMM:   6    -0.253647506462E+04    0.23637E-02   -0.19688E-02  8399   0.143E-01    0.573E-01
RMM:   7    -0.253647538209E+04   -0.31748E-03   -0.61005E-03  8828   0.768E-02    0.299E-01
RMM:   8    -0.253647515014E+04    0.23195E-03   -0.13751E-03  6818   0.438E-02    0.189E-01
RMM:   9    -0.253647501605E+04    0.13409E-03   -0.54646E-04  4919   0.334E-02    0.821E-02
RMM:  10    -0.253647499430E+04    0.21755E-04   -0.11152E-03  5778   0.352E-02    0.600E-02
RMM:  11    -0.253647501722E+04   -0.22923E-04   -0.22426E-04  4006   0.283E-02
   8 F= -.25364750E+04 E0= -.25364173E+04  d E =-.257144E-01  mag=   254.0000
       N       E                     dE             d eps       ncg     rms          rms(c)
DAV:   1    -0.253646920869E+04    0.57856E-02   -0.19335E+00  7280   0.137E+00    0.121E+00
RMM:   2    -0.253647414317E+04   -0.49345E-02   -0.14245E-01  7551   0.662E-01    0.103E+00
RMM:   3    -0.253647904629E+04   -0.49031E-02   -0.43863E-02  8597   0.208E-01    0.399E-01
RMM:   4    -0.253647878117E+04    0.26511E-03   -0.57465E-03  8438   0.892E-02    0.359E-01
RMM:   5    -0.253647860909E+04    0.17208E-03   -0.12516E-03  6548   0.371E-02    0.244E-01
RMM:   6    -0.253647838698E+04    0.22211E-03   -0.12491E-03  5973   0.439E-02    0.140E-01
RMM:   7    -0.253647838042E+04    0.65628E-05   -0.36120E-04  4352   0.304E-02
   9 F= -.25364784E+04 E0= -.25364204E+04  d E =-.290776E-01  mag=   254.0000
       N       E                     dE             d eps       ncg     rms          rms(c)
DAV:   1    -0.253646020864E+04    0.18178E-01   -0.58192E+00  7200   0.226E+00    0.101E+00
RMM:   2    -0.253648693037E+04   -0.26722E-01   -0.23558E-01  7872   0.813E-01    0.695E-01
RMM:   3    -0.253649528204E+04   -0.83517E-02   -0.63444E-02  8608   0.242E-01    0.368E-01
RMM:   4    -0.253649511902E+04    0.16302E-03   -0.65871E-03  8073   0.998E-02    0.302E-01
RMM:   5    -0.253649488368E+04    0.23534E-03   -0.19310E-03  6957   0.419E-02    0.228E-01
RMM:   6    -0.253649463778E+04    0.24590E-03   -0.12888E-03  6437   0.436E-02    0.215E-01
RMM:   7    -0.253649463468E+04    0.30971E-05   -0.71171E-04  5533   0.391E-02
  10 F= -.25364946E+04 E0= -.25364378E+04  d E =-.162543E-01  mag=   254.0000
       N       E                     dE             d eps       ncg     rms          rms(c)
DAV:   1    -0.253640688043E+04    0.87757E-01   -0.14643E+01  7120   0.359E+00    0.164E+00
RMM:   2    -0.253647446714E+04   -0.67587E-01   -0.60214E-01  7893   0.130E+00    0.117E+00
RMM:   3    -0.253649636169E+04   -0.21895E-01   -0.16529E-01  8675   0.384E-01    0.584E-01
RMM:   4    -0.253649603136E+04    0.33032E-03   -0.18034E-02  8572   0.156E-01    0.495E-01
RMM:   5    -0.253649569096E+04    0.34041E-03   -0.55046E-03  8410   0.656E-02    0.391E-01
RMM:   6    -0.253649514154E+04    0.54942E-03   -0.35640E-03  8050   0.618E-02    0.311E-01
RMM:   7    -0.253649521249E+04   -0.70955E-04   -0.18533E-03  7542   0.486E-02    0.222E-01
RMM:   8    -0.253649525544E+04   -0.42950E-04   -0.48919E-04  4695   0.336E-02
  11 F= -.25364953E+04 E0= -.25364410E+04  d E =-.168750E-01  mag=   254.0000
       N       E                     dE             d eps       ncg     rms          rms(c)
DAV:   1    -0.253648867636E+04    0.65361E-02   -0.16955E+00  7440   0.122E+00    0.547E-01
RMM:   2    -0.253649623449E+04   -0.75581E-02   -0.67434E-02  7828   0.438E-01    0.391E-01
RMM:   3    -0.253649850780E+04   -0.22733E-02   -0.17579E-02  8256   0.130E-01    0.203E-01
RMM:   4    -0.253649843330E+04    0.74503E-04   -0.16404E-03  6396   0.596E-02    0.170E-01
RMM:   5    -0.253649834375E+04    0.89553E-04   -0.39162E-04  4317   0.284E-02
  12 F= -.25364983E+04 E0= -.25364433E+04  d E =-.199633E-01  mag=   254.0000
       N       E                     dE             d eps       ncg     rms          rms(c)
DAV:   1    -0.253647810377E+04    0.20330E-01   -0.51425E+00  7440   0.223E+00    0.894E-01
RMM:   2    -0.253650011389E+04   -0.22010E-01   -0.20652E-01  7898   0.762E-01    0.651E-01
RMM:   3    -0.253650752541E+04   -0.74115E-02   -0.60023E-02  8583   0.224E-01    0.325E-01
RMM:   4    -0.253650747216E+04    0.53249E-04   -0.65694E-03  8073   0.907E-02    0.258E-01
RMM:   5    -0.253650730493E+04    0.16723E-03   -0.19264E-03  6836   0.419E-02    0.207E-01
RMM:   6    -0.253650711958E+04    0.18535E-03   -0.84852E-04  5805   0.352E-02    0.176E-01
RMM:   7    -0.253650711261E+04    0.69763E-05   -0.61976E-04  5109   0.372E-02
  13 F= -.25365071E+04 E0= -.25364539E+04  d E =-.876886E-02  mag=   254.0000
       N       E                     dE             d eps       ncg     rms          rms(c)
DAV:   1    -0.253624398945E+04    0.26313E+00   -0.45911E+01  7440   0.666E+00    0.264E+00
RMM:   2    -0.253643783852E+04   -0.19385E+00   -0.18254E+00  7883   0.227E+00    0.171E+00
RMM:   3    -0.253650618297E+04   -0.68344E-01   -0.55853E-01  8789   0.664E-01    0.867E-01
RMM:   4    -0.253650435613E+04    0.18268E-02   -0.62451E-02  8633   0.271E-01    0.833E-01
RMM:   5    -0.253650378596E+04    0.57017E-03   -0.19540E-02  9479   0.112E-01    0.606E-01
RMM:   6    -0.253650256402E+04    0.12219E-02   -0.10579E-02  9096   0.938E-02    0.465E-01
RMM:   7    -0.253650275890E+04   -0.19488E-03   -0.56493E-03  9230   0.649E-02    0.276E-01
RMM:   8    -0.253650299217E+04   -0.23327E-03   -0.13497E-03  6567   0.373E-02    0.212E-01
RMM:   9    -0.253650299649E+04   -0.43208E-05   -0.50639E-04  4620   0.342E-02
  14 F= -.25365030E+04 E0= -.25364575E+04  d E =-.465274E-02  mag=   254.0000
       N       E                     dE             d eps       ncg     rms          rms(c)
DAV:   1    -0.253644285934E+04    0.60133E-01   -0.12358E+01  7440   0.346E+00    0.138E+00
RMM:   2    -0.253649434660E+04   -0.51487E-01   -0.48482E-01  7830   0.118E+00    0.911E-01
RMM:   3    -0.253651239060E+04   -0.18044E-01   -0.14743E-01  8648   0.350E-01    0.456E-01
RMM:   4    -0.253651183247E+04    0.55812E-03   -0.15606E-02  8404   0.139E-01    0.405E-01
RMM:   5    -0.253651151276E+04    0.31971E-03   -0.49099E-03  8137   0.607E-02    0.312E-01
RMM:   6    -0.253651107844E+04    0.43432E-03   -0.26702E-03  7964   0.493E-02    0.229E-01
RMM:   7    -0.253651104315E+04    0.35294E-04   -0.10175E-03  6237   0.395E-02    0.137E-01
RMM:   8    -0.253651109145E+04   -0.48305E-04   -0.38301E-04  4363   0.320E-02
  15 F= -.25365111E+04 E0= -.25364617E+04  d E =-.127477E-01  mag=   254.0000
       N       E                     dE             d eps       ncg     rms          rms(c)
DAV:   1    -0.253648769769E+04    0.23345E-01   -0.84527E+00  7440   0.293E+00    0.931E-01
RMM:   2    -0.253651600275E+04   -0.28305E-01   -0.32548E-01  7851   0.968E-01    0.659E-01
RMM:   3    -0.253652592188E+04   -0.99191E-02   -0.95831E-02  8711   0.284E-01    0.367E-01
RMM:   4    -0.253652548521E+04    0.43667E-03   -0.10547E-02  8475   0.112E-01    0.322E-01
RMM:   5    -0.253652521347E+04    0.27174E-03   -0.34143E-03  7882   0.514E-02    0.226E-01
RMM:   6    -0.253652500431E+04    0.20916E-03   -0.18036E-03  7217   0.472E-02    0.190E-01
RMM:   7    -0.253652500322E+04    0.10952E-05   -0.75193E-04  5679   0.352E-02
  16 F= -.25365250E+04 E0= -.25364787E+04  d E =-.139118E-01  mag=   254.0000
       N       E                     dE             d eps       ncg     rms          rms(c)
DAV:   1    -0.253619039072E+04    0.33461E+00   -0.75712E+01  7440   0.878E+00    0.280E+00
RMM:   2    -0.253644730079E+04   -0.25691E+00   -0.29442E+00  7848   0.291E+00    0.196E+00
RMM:   3    -0.253653960313E+04   -0.92302E-01   -0.89137E-01  8885   0.858E-01    0.108E+00
RMM:   4    -0.253653562851E+04    0.39746E-02   -0.10025E-01  8999   0.321E-01    0.963E-01
RMM:   5    -0.253653382305E+04    0.18055E-02   -0.33019E-02  9718   0.140E-01    0.676E-01
RMM:   6    -0.253653214530E+04    0.16778E-02   -0.16326E-02  9113   0.122E-01    0.529E-01
RMM:   7    -0.253653250113E+04   -0.35583E-03   -0.84853E-03  9653   0.745E-02    0.311E-01
RMM:   8    -0.253653266959E+04   -0.16846E-03   -0.22113E-03  7391   0.430E-02    0.250E-01
RMM:   9    -0.253653265630E+04    0.13292E-04   -0.73026E-04  5071   0.329E-02
  17 F= -.25365327E+04 E0= -.25364968E+04  d E =-.215648E-01  mag=   254.0000
       N       E                     dE             d eps       ncg     rms          rms(c)
DAV:   1    -0.253648843684E+04    0.44233E-01   -0.11124E+01  7360   0.337E+00    0.105E+00
RMM:   2    -0.253652461031E+04   -0.36173E-01   -0.42532E-01  7866   0.110E+00    0.712E-01
RMM:   3    -0.253653716348E+04   -0.12553E-01   -0.12285E-01  8711   0.321E-01    0.393E-01
RMM:   4    -0.253653654556E+04    0.61792E-03   -0.13269E-02  8475   0.130E-01    0.351E-01
RMM:   5    -0.253653628911E+04    0.25645E-03   -0.43124E-03  8116   0.550E-02    0.234E-01
RMM:   6    -0.253653598189E+04    0.30722E-03   -0.22001E-03  7700   0.497E-02    0.188E-01
RMM:   7    -0.253653598783E+04   -0.59363E-05   -0.85447E-04  5922   0.352E-02
  18 F= -.25365360E+04 E0= -.25364967E+04  d E =-.248964E-01  mag=   254.0000
       N       E                     dE             d eps       ncg     rms          rms(c)
DAV:   1    -0.253648720353E+04    0.48778E-01   -0.11708E+01  7360   0.315E+00    0.147E+00
RMM:   2    -0.253653247506E+04   -0.45272E-01   -0.45121E-01  7628   0.115E+00    0.872E-01
RMM:   3    -0.253654928362E+04   -0.16809E-01   -0.13738E-01  8679   0.358E-01    0.367E-01
RMM:   4    -0.253654864120E+04    0.64242E-03   -0.13423E-02  8502   0.145E-01    0.371E-01
RMM:   5    -0.253654859998E+04    0.41219E-04   -0.47159E-03  8015   0.512E-02    0.267E-01
RMM:   6    -0.253654825265E+04    0.34733E-03   -0.20565E-03  7187   0.571E-02    0.185E-01
RMM:   7    -0.253654828258E+04   -0.29922E-04   -0.11363E-03  6382   0.377E-02    0.101E-01
RMM:   8    -0.253654832605E+04   -0.43470E-04   -0.35713E-04  4281   0.291E-02
  19 F= -.25365483E+04 E0= -.25365109E+04  d E =-.123382E-01  mag=   254.0000
       N       E                     dE             d eps       ncg     rms          rms(c)
DAV:   1    -0.253639820299E+04    0.15008E+00   -0.27766E+01  7360   0.485E+00    0.228E+00
RMM:   2    -0.253650641693E+04   -0.10821E+00   -0.10842E+00  7648   0.176E+00    0.136E+00
RMM:   3    -0.253654782964E+04   -0.41413E-01   -0.33833E-01  8793   0.551E-01    0.571E-01
RMM:   4    -0.253654634300E+04    0.14866E-02   -0.34376E-02  8960   0.219E-01    0.582E-01
RMM:   5    -0.253654640684E+04   -0.63843E-04   -0.12131E-02  8766   0.741E-02    0.420E-01
RMM:   6    -0.253654563064E+04    0.77620E-03   -0.49623E-03  8116   0.807E-02    0.294E-01
RMM:   7    -0.253654571145E+04   -0.80808E-04   -0.33522E-03  8664   0.527E-02    0.178E-01
RMM:   8    -0.253654581062E+04   -0.99163E-04   -0.85298E-04  5909   0.290E-02
  20 F= -.25365458E+04 E0= -.25365115E+04  d E =-.982279E-02  mag=   254.0000
       N       E                     dE             d eps       ncg     rms          rms(c)
DAV:   1    -0.253652126393E+04    0.24448E-01   -0.56857E+00  7680   0.220E+00    0.102E+00
RMM:   2    -0.253654305588E+04   -0.21792E-01   -0.21581E-01  7595   0.799E-01    0.632E-01
RMM:   3    -0.253655094106E+04   -0.78852E-02   -0.64532E-02  8646   0.250E-01    0.265E-01
RMM:   4    -0.253655057637E+04    0.36469E-03   -0.63072E-03  8023   0.997E-02    0.272E-01
RMM:   5    -0.253655052818E+04    0.48193E-04   -0.20816E-03  7085   0.391E-02    0.190E-01
RMM:   6    -0.253655027469E+04    0.25348E-03   -0.83198E-04  5768   0.429E-02    0.119E-01
RMM:   7    -0.253655024446E+04    0.30236E-04   -0.53571E-04  4886   0.328E-02
  21 F= -.25365502E+04 E0= -.25365147E+04  d E =-.142566E-01  mag=   254.0000
       N       E                     dE             d eps       ncg     rms          rms(c)
DAV:   1    -0.253653911841E+04    0.11156E-01   -0.20681E+00  7680   0.132E+00    0.635E-01
RMM:   2    -0.253654722510E+04   -0.81067E-02   -0.80611E-02  7599   0.483E-01    0.385E-01
RMM:   3    -0.253655045034E+04   -0.32252E-02   -0.26072E-02  8713   0.153E-01    0.158E-01
RMM:   4    -0.253655036822E+04    0.82123E-04   -0.29030E-03  7517   0.637E-02    0.164E-01
RMM:   5    -0.253655036904E+04   -0.81849E-06   -0.84194E-04  5614   0.273E-02
  22 F= -.25365504E+04 E0= -.25365140E+04  d E =-.143812E-01  mag=   254.0000
       N       E                     dE             d eps       ncg     rms          rms(c)
DAV:   1    -0.253651396806E+04    0.36400E-01   -0.12913E+01  7200   0.334E+00    0.101E+00
RMM:   2    -0.253655458807E+04   -0.40620E-01   -0.45155E-01  7625   0.115E+00    0.694E-01
RMM:   3    -0.253656843068E+04   -0.13843E-01   -0.13194E-01  8621   0.353E-01    0.336E-01
RMM:   4    -0.253656812158E+04    0.30910E-03   -0.14527E-02  8449   0.129E-01    0.312E-01
RMM:   5    -0.253656791186E+04    0.20972E-03   -0.47733E-03  7945   0.501E-02    0.218E-01
RMM:   6    -0.253656753909E+04    0.37277E-03   -0.27919E-03  7811   0.531E-02    0.136E-01
RMM:   7    -0.253656757053E+04   -0.31439E-04   -0.96404E-04  5883   0.333E-02
  23 F= -.25365676E+04 E0= -.25365303E+04  d E =-.172015E-01  mag=   254.0000
       N       E                     dE             d eps       ncg     rms          rms(c)
DAV:   1    -0.253609683376E+04    0.47071E+00   -0.11577E+02  7040   0.100E+01    0.309E+00
RMM:   2    -0.253647605608E+04   -0.37922E+00   -0.41645E+00  7604   0.349E+00    0.213E+00
RMM:   3    -0.253660633568E+04   -0.13028E+00   -0.12385E+00  8773   0.107E+00    0.106E+00
RMM:   4    -0.253660343161E+04    0.29041E-02   -0.14212E-01  9186   0.369E-01    0.977E-01
RMM:   5    -0.253660130587E+04    0.21257E-02   -0.48957E-02  9826   0.144E-01    0.670E-01
RMM:   6    -0.253659857048E+04    0.27354E-02   -0.25332E-02  8803   0.144E-01    0.459E-01
RMM:   7    -0.253659917504E+04   -0.60456E-03   -0.10664E-02  9632   0.748E-02    0.256E-01
RMM:   8    -0.253659911652E+04    0.58517E-04   -0.23834E-03  7216   0.425E-02    0.180E-01
RMM:   9    -0.253659912729E+04   -0.10775E-04   -0.10814E-03  5665   0.319E-02    0.106E-01
RMM:  10    -0.253659914770E+04   -0.20408E-04   -0.95159E-04  5524   0.302E-02
  24 F= -.25365991E+04 E0= -.25365590E+04  d E =-.487787E-01  mag=   254.0000
       N       E                     dE             d eps       ncg     rms          rms(c)
DAV:   1    -0.253659600089E+04    0.31264E-02   -0.30432E+00  7360   0.157E+00    0.392E-01
RMM:   2    -0.253660552472E+04   -0.95238E-02   -0.10161E-01  7595   0.535E-01    0.252E-01
RMM:   3    -0.253660864215E+04   -0.31174E-02   -0.30259E-02  8584   0.161E-01    0.138E-01
RMM:   4    -0.253660860021E+04    0.41931E-04   -0.37017E-03  7318   0.573E-02    0.114E-01
RMM:   5    -0.253660859709E+04    0.31210E-05   -0.13154E-03  5902   0.293E-02    0.831E-02
RMM:   6    -0.253660854620E+04    0.50889E-04   -0.75977E-04  5382   0.309E-02
  25 F= -.25366085E+04 E0= -.25365680E+04  d E =-.939850E-02  mag=   254.0000
       N       E                     dE             d eps       ncg     rms          rms(c)
DAV:   1    -0.253652647211E+04    0.82125E-01   -0.27117E+01  6800   0.468E+00    0.115E+00
RMM:   2    -0.253660915194E+04   -0.82680E-01   -0.88302E-01  7568   0.157E+00    0.775E-01
RMM:   3    -0.253663629374E+04   -0.27142E-01   -0.26068E-01  8694   0.476E-01    0.381E-01
RMM:   4    -0.253663596386E+04    0.32988E-03   -0.30570E-02  9090   0.150E-01    0.321E-01
RMM:   5    -0.253663569110E+04    0.27275E-03   -0.10547E-02  8337   0.631E-02    0.233E-01
RMM:   6    -0.253663534570E+04    0.34540E-03   -0.56759E-03  8520   0.640E-02    0.153E-01
RMM:   7    -0.253663546736E+04   -0.12166E-03   -0.20021E-03  7111   0.421E-02    0.106E-01
RMM:   8    -0.253663552457E+04   -0.57207E-04   -0.64579E-04  4845   0.287E-02
  26 F= -.25366355E+04 E0= -.25365939E+04  d E =-.363769E-01  mag=   254.0000
       N       E                     dE             d eps       ncg     rms          rms(c)
DAV:   1    -0.253624457914E+04    0.39089E+00   -0.10874E+02  6800   0.937E+00    0.232E+00
RMM:   2    -0.253657787549E+04   -0.33330E+00   -0.35762E+00  7574   0.316E+00    0.160E+00
RMM:   3    -0.253668682823E+04   -0.10895E+00   -0.10455E+00  8705   0.956E-01    0.784E-01
RMM:   4    -0.253668471388E+04    0.21144E-02   -0.11818E-01  9238   0.300E-01    0.654E-01
RMM:   5    -0.253668367420E+04    0.10397E-02   -0.41868E-02  9708   0.120E-01    0.475E-01
RMM:   6    -0.253668179608E+04    0.18781E-02   -0.20558E-02  9047   0.116E-01    0.317E-01
RMM:   7    -0.253668226103E+04   -0.46496E-03   -0.86771E-03  9445   0.685E-02    0.221E-01
RMM:   8    -0.253668242476E+04   -0.16372E-03   -0.22760E-03  6772   0.374E-02    0.147E-01
RMM:   9    -0.253668249816E+04   -0.73397E-04   -0.10724E-03  5334   0.296E-02    0.102E-01
RMM:  10    -0.253668254297E+04   -0.44818E-04   -0.67287E-04  4810   0.277E-02
  27 F= -.25366825E+04 E0= -.25366390E+04  d E =-.833953E-01  mag=   254.0000
       N       E                     dE             d eps       ncg     rms          rms(c)
DAV:   1    -0.253494084267E+04    0.17417E+01   -0.43432E+02  6640   0.187E+01    0.477E+00
RMM:   2    -0.253632460203E+04   -0.13838E+01   -0.15012E+01  7601   0.646E+00    0.353E+00
RMM:   3    -0.253676822969E+04   -0.44363E+00   -0.42467E+00  8680   0.193E+00    0.172E+00
RMM:   4    -0.253675215348E+04    0.16076E-01   -0.46346E-01  9235   0.615E-01    0.138E+00
RMM:   5    -0.253674713507E+04    0.50184E-02   -0.17805E-01  9880   0.244E-01    0.101E+00
RMM:   6    -0.253673721873E+04    0.99163E-02   -0.80416E-02  9110   0.236E-01    0.711E-01
RMM:   7    -0.253673868400E+04   -0.14653E-02   -0.37691E-02  9668   0.138E-01    0.462E-01
RMM:   8    -0.253673921514E+04   -0.53114E-03   -0.89856E-03  9025   0.796E-02    0.330E-01
RMM:   9    -0.253673950913E+04   -0.29399E-03   -0.48135E-03  7731   0.451E-02    0.218E-01
RMM:  10    -0.253673965289E+04   -0.14376E-03   -0.25555E-03  7813   0.495E-02    0.145E-01
RMM:  11    -0.253673979517E+04   -0.14228E-03   -0.13378E-03  5742   0.354E-02    0.121E-01
RMM:  12    -0.253673984041E+04   -0.45237E-04   -0.59921E-04  4587   0.319E-02
  28 F= -.25367398E+04 E0= -.25366948E+04  d E =-.140693E+00  mag=   254.0000
       N       E                     dE             d eps       ncg     rms          rms(c)
DAV:   1    -0.253672982996E+04    0.99652E-02   -0.54684E+00  6960   0.206E+00    0.431E-01
RMM:   2    -0.253674658350E+04   -0.16754E-01   -0.17067E-01  7548   0.684E-01    0.272E-01
RMM:   3    -0.253675169951E+04   -0.51160E-02   -0.49060E-02  8525   0.204E-01    0.182E-01
RMM:   4    -0.253675167263E+04    0.26880E-04   -0.59585E-03  7493   0.621E-02    0.141E-01
RMM:   5    -0.253675163686E+04    0.35777E-04   -0.23248E-03  6314   0.367E-02    0.106E-01
RMM:   6    -0.253675153446E+04    0.10240E-03   -0.15813E-03  6687   0.392E-02    0.833E-02
RMM:   7    -0.253675158529E+04   -0.50835E-04   -0.73717E-04  5223   0.339E-02
  29 F= -.25367516E+04 E0= -.25367065E+04  d E =-.117449E-01  mag=   254.0000
       N       E                     dE             d eps       ncg     rms          rms(c)
DAV:   1    -0.253659137617E+04    0.16016E+00   -0.49018E+01  6640   0.617E+00    0.133E+00
RMM:   2    -0.253674113477E+04   -0.14976E+00   -0.15268E+00  7530   0.205E+00    0.817E-01
RMM:   3    -0.253678722587E+04   -0.46091E-01   -0.43745E-01  8622   0.617E-01    0.544E-01
RMM:   4    -0.253678725108E+04   -0.25204E-04   -0.51654E-02  9577   0.167E-01    0.427E-01
RMM:   5    -0.253678653832E+04    0.71276E-03   -0.16979E-02  8876   0.752E-02    0.321E-01
RMM:   6    -0.253678543609E+04    0.11022E-02   -0.12686E-02  8806   0.933E-02    0.224E-01
RMM:   7    -0.253678577033E+04   -0.33423E-03   -0.43183E-03  8589   0.519E-02    0.119E-01
RMM:   8    -0.253678568686E+04    0.83463E-04   -0.97369E-04  5343   0.333E-02
  30 F= -.25367857E+04 E0= -.25367406E+04  d E =-.458465E-01  mag=   254.0000
       N       E                     dE             d eps       ncg     rms          rms(c)
DAV:   1    -0.253605781015E+04    0.72796E+00   -0.19616E+02  6480   0.123E+01    0.271E+00
RMM:   2    -0.253666530827E+04   -0.60750E+00   -0.62041E+00  7537   0.413E+00    0.167E+00
RMM:   3    -0.253685295276E+04   -0.18764E+00   -0.17779E+00  8612   0.125E+00    0.112E+00
RMM:   4    -0.253685230861E+04    0.64415E-03   -0.20325E-01  9638   0.337E-01    0.904E-01
RMM:   5    -0.253684896084E+04    0.33478E-02   -0.69881E-02  9718   0.151E-01    0.664E-01
RMM:   6    -0.253684421718E+04    0.47437E-02   -0.50041E-02  8854   0.187E-01    0.472E-01
RMM:   7    -0.253684548433E+04   -0.12672E-02   -0.16471E-02  9548   0.954E-02    0.249E-01
RMM:   8    -0.253684512152E+04    0.36282E-03   -0.41178E-03  7746   0.494E-02    0.185E-01
RMM:   9    -0.253684520253E+04   -0.81016E-04   -0.19494E-03  6767   0.384E-02    0.123E-01
RMM:  10    -0.253684526274E+04   -0.60211E-04   -0.10314E-03  5496   0.331E-02    0.986E-02
RMM:  11    -0.253684530448E+04   -0.41742E-04   -0.47687E-04  4565   0.317E-02
  31 F= -.25368453E+04 E0= -.25368012E+04  d E =-.105464E+00  mag=   254.0000
       N       E                     dE             d eps       ncg     rms          rms(c)
DAV:   1    -0.253358009009E+04    0.32652E+01   -0.78090E+02  6480   0.246E+01    0.578E+00
RMM:   2    -0.253614377391E+04   -0.25637E+01   -0.26365E+01  7540   0.844E+00    0.357E+00
RMM:   3    -0.253694011708E+04   -0.79634E+00   -0.75439E+00  8569   0.258E+00    0.252E+00
RMM:   4    -0.253692955605E+04    0.10561E-01   -0.83014E-01  9526   0.725E-01    0.208E+00
RMM:   5    -0.253691044563E+04    0.19110E-01   -0.30836E-01  9630   0.318E-01    0.147E+00
RMM:   6    -0.253688652408E+04    0.23922E-01   -0.20426E-01  8776   0.398E-01    0.988E-01
RMM:   7    -0.253689064863E+04   -0.41245E-02   -0.68625E-02  9731   0.193E-01    0.581E-01
RMM:   8    -0.253688902052E+04    0.16281E-02   -0.17625E-02  9468   0.100E-01    0.368E-01
RMM:   9    -0.253688964008E+04   -0.61956E-03   -0.78111E-03  8937   0.596E-02    0.238E-01
RMM:  10    -0.253688975654E+04   -0.11646E-03   -0.23497E-03  7118   0.455E-02    0.173E-01
RMM:  11    -0.253688981530E+04   -0.58757E-04   -0.15972E-03  6080   0.372E-02    0.148E-01
RMM:  12    -0.253688984823E+04   -0.32933E-04   -0.10263E-03  5684   0.352E-02    0.675E-02
RMM:  13    -0.253688990540E+04   -0.57173E-04   -0.65705E-04  4704   0.345E-02
  32 F= -.25368899E+04 E0= -.25368507E+04  d E =-.150065E+00  mag=   254.0000
       N       E                     dE             d eps       ncg     rms          rms(c)
DAV:   1    -0.253616814544E+04    0.72170E+00   -0.17796E+02  6800   0.117E+01    0.266E+00
RMM:   2    -0.253672578252E+04   -0.55764E+00   -0.57270E+00  7520   0.396E+00    0.164E+00
RMM:   3    -0.253689623671E+04   -0.17045E+00   -0.16207E+00  8610   0.119E+00    0.105E+00
RMM:   4    -0.253689364652E+04    0.25902E-02   -0.18184E-01  9475   0.336E-01    0.841E-01
RMM:   5    -0.253689065767E+04    0.29888E-02   -0.58308E-02  9677   0.145E-01    0.621E-01
RMM:   6    -0.253688484484E+04    0.58128E-02   -0.39130E-02  8683   0.174E-01    0.443E-01
RMM:   7    -0.253688574978E+04   -0.90494E-03   -0.15364E-02  9383   0.871E-02    0.243E-01
RMM:   8    -0.253688539818E+04    0.35160E-03   -0.28487E-03  7423   0.502E-02    0.173E-01
RMM:   9    -0.253688545517E+04   -0.56992E-04   -0.14757E-03  6434   0.355E-02    0.121E-01
RMM:  10    -0.253688547841E+04   -0.23234E-04   -0.52399E-04  4946   0.295E-02
  33 F= -.25368855E+04 E0= -.25368436E+04  d E =-.145638E+00  mag=   254.0000
       N       E                     dE             d eps       ncg     rms          rms(c)
DAV:   1    -0.253671327559E+04    0.17218E+00   -0.45455E+01  6640   0.594E+00    0.129E+00
RMM:   2    -0.253685284593E+04   -0.13957E+00   -0.14274E+00  7537   0.199E+00    0.787E-01
RMM:   3    -0.253689441223E+04   -0.41566E-01   -0.39500E-01  8560   0.592E-01    0.526E-01
RMM:   4    -0.253689432134E+04    0.90887E-04   -0.44890E-02  9375   0.163E-01    0.425E-01
RMM:   5    -0.253689346428E+04    0.85706E-03   -0.13882E-02  8345   0.699E-02    0.312E-01
RMM:   6    -0.253689205126E+04    0.14130E-02   -0.10830E-02  8527   0.934E-02    0.225E-01
RMM:   7    -0.253689233407E+04   -0.28281E-03   -0.33888E-03  8091   0.472E-02    0.108E-01
RMM:   8    -0.253689222522E+04    0.10885E-03   -0.54367E-04  4931   0.313E-02    0.840E-02
RMM:   9    -0.253689222004E+04    0.51849E-05   -0.25823E-04  4161   0.223E-02
  34 F= -.25368922E+04 E0= -.25368516E+04  d E =-.152380E+00  mag=   254.0000
       N       E                     dE             d eps       ncg     rms          rms(c)
DAV:   1    -0.253669535912E+04    0.19687E+00   -0.63272E+01  6880   0.702E+00    0.226E+00
RMM:   2    -0.253691095581E+04   -0.21560E+00   -0.24227E+00  7689   0.256E+00    0.155E+00
RMM:   3    -0.253697618373E+04   -0.65228E-01   -0.62979E-01  8837   0.770E-01    0.798E-01
RMM:   4    -0.253697376194E+04    0.24218E-02   -0.70217E-02  9259   0.268E-01    0.759E-01
RMM:   5    -0.253697244575E+04    0.13162E-02   -0.26753E-02  9776   0.108E-01    0.511E-01
RMM:   6    -0.253697119766E+04    0.12481E-02   -0.15896E-02  8524   0.120E-01    0.343E-01
RMM:   7    -0.253697168515E+04   -0.48749E-03   -0.60813E-03  9124   0.570E-02    0.163E-01
RMM:   8    -0.253697143163E+04    0.25352E-03   -0.10450E-03  5957   0.380E-02    0.112E-01
RMM:   9    -0.253697139189E+04    0.39739E-04   -0.71183E-04  5377   0.276E-02
  35 F= -.25369714E+04 E0= -.25369313E+04  d E =-.791719E-01  mag=   254.0000
       N       E                     dE             d eps       ncg     rms          rms(c)
DAV:   1    -0.253518810328E+04    0.17833E+01   -0.41880E+02  6640   0.181E+01    0.593E+00
RMM:   2    -0.253667743631E+04   -0.14893E+01   -0.16447E+01  7665   0.667E+00    0.430E+00
RMM:   3    -0.253711605826E+04   -0.43862E+00   -0.42120E+00  8780   0.202E+00    0.223E+00
RMM:   4    -0.253709872846E+04    0.17330E-01   -0.47331E-01  9365   0.696E-01    0.212E+00
RMM:   5    -0.253708733158E+04    0.11397E-01   -0.18618E-01  9842   0.282E-01    0.140E+00
RMM:   6    -0.253707870711E+04    0.86245E-02   -0.97642E-02  8521   0.300E-01    0.837E-01
RMM:   7    -0.253708202754E+04   -0.33204E-02   -0.39696E-02  9872   0.147E-01    0.428E-01
RMM:   8    -0.253708081824E+04    0.12093E-02   -0.75329E-03  9484   0.726E-02    0.265E-01
RMM:   9    -0.253708057699E+04    0.24125E-03   -0.45133E-03  8654   0.506E-02    0.173E-01
RMM:  10    -0.253708055605E+04    0.20936E-04   -0.26035E-03  8484   0.458E-02    0.101E-01
RMM:  11    -0.253708062606E+04   -0.70006E-04   -0.10185E-03  5557   0.309E-02    0.760E-02
RMM:  12    -0.253708064370E+04   -0.17641E-04   -0.40584E-04  4471   0.301E-02
  36 F= -.25370806E+04 E0= -.25370427E+04  d E =-.188424E+00  mag=   254.0000
       N       E                     dE             d eps       ncg     rms          rms(c)
DAV:   1    -0.253712150715E+04   -0.40881E-01   -0.87437E+00  7840   0.285E+00    0.943E-01
RMM:   2    -0.253715419514E+04   -0.32688E-01   -0.34013E-01  8099   0.940E-01    0.649E-01
RMM:   3    -0.253716212457E+04   -0.79294E-02   -0.71822E-02  8996   0.251E-01    0.309E-01
RMM:   4    -0.253716163363E+04    0.49094E-03   -0.89764E-03  8947   0.991E-02    0.240E-01
RMM:   5    -0.253716141943E+04    0.21420E-03   -0.34692E-03  7676   0.492E-02    0.207E-01
RMM:   6    -0.253716134310E+04    0.76331E-04   -0.17530E-03  7374   0.443E-02    0.119E-01
RMM:   7    -0.253716139412E+04   -0.51022E-04   -0.60036E-04  5072   0.317E-02
  37 F= -.25371614E+04 E0= -.25371221E+04  d E =-.807504E-01  mag=   254.0000
       N       E                     dE             d eps       ncg     rms          rms(c)
DAV:   1    -0.253699574105E+04    0.16560E+00   -0.78551E+01  7440   0.854E+00    0.280E+00
RMM:   2    -0.253729042245E+04   -0.29468E+00   -0.30773E+00  8121   0.283E+00    0.189E+00
RMM:   3    -0.253736124925E+04   -0.70827E-01   -0.63565E-01  8959   0.749E-01    0.917E-01
RMM:   4    -0.253735712762E+04    0.41216E-02   -0.77428E-02  9188   0.289E-01    0.738E-01
RMM:   5    -0.253735546286E+04    0.16648E-02   -0.30346E-02  9633   0.133E-01    0.641E-01
RMM:   6    -0.253735460726E+04    0.85560E-03   -0.13193E-02  9402   0.973E-02    0.380E-01
RMM:   7    -0.253735500388E+04   -0.39662E-03   -0.52107E-03  9115   0.587E-02    0.262E-01
RMM:   8    -0.253735515793E+04   -0.15405E-03   -0.12741E-03  6594   0.340E-02    0.165E-01
RMM:   9    -0.253735520780E+04   -0.49870E-04   -0.51261E-04  4626   0.332E-02
  38 F= -.25373552E+04 E0= -.25373114E+04  d E =-.274564E+00  mag=   254.0000
       N       E                     dE             d eps       ncg     rms          rms(c)
DAV:   1    -0.253607749302E+04    0.12777E+01   -0.31445E+02  7360   0.171E+01    0.552E+00
RMM:   2    -0.253726875625E+04   -0.11913E+01   -0.12495E+01  8123   0.568E+00    0.364E+00
RMM:   3    -0.253755322479E+04   -0.28447E+00   -0.25612E+00  8938   0.150E+00    0.186E+00
RMM:   4    -0.253753752277E+04    0.15702E-01   -0.30918E-01  9131   0.591E-01    0.160E+00
RMM:   5    -0.253753271603E+04    0.48067E-02   -0.11805E-01  9815   0.246E-01    0.128E+00
RMM:   6    -0.253752841747E+04    0.42986E-02   -0.49274E-02  9360   0.201E-01    0.100E+00
RMM:   7    -0.253752982638E+04   -0.14089E-02   -0.23644E-02  9648   0.134E-01    0.776E-01
RMM:   8    -0.253753079585E+04   -0.96947E-03   -0.78102E-03  9223   0.755E-02    0.470E-01
RMM:   9    -0.253753115153E+04   -0.35567E-03   -0.28918E-03  8085   0.519E-02    0.353E-01
RMM:  10    -0.253753117282E+04   -0.21298E-04   -0.15902E-03  7013   0.496E-02    0.159E-01
RMM:  11    -0.253753123054E+04   -0.57718E-04   -0.66119E-04  4912   0.300E-02
  39 F= -.25375312E+04 E0= -.25374811E+04  d E =-.450587E+00  mag=   254.0000
       N       E                     dE             d eps       ncg     rms          rms(c)
DAV:   1    -0.253753038606E+04    0.78677E-03   -0.24367E+01  8240   0.468E+00    0.171E+00
RMM:   2    -0.253761468669E+04   -0.84301E-01   -0.94384E-01  7655   0.167E+00    0.119E+00
RMM:   3    -0.253764513762E+04   -0.30451E-01   -0.28300E-01  8825   0.518E-01    0.611E-01
RMM:   4    -0.253764409253E+04    0.10451E-02   -0.31063E-02  9144   0.191E-01    0.604E-01
RMM:   5    -0.253764394573E+04    0.14680E-03   -0.11037E-02  9242   0.718E-02    0.452E-01
RMM:   6    -0.253764327071E+04    0.67502E-03   -0.61912E-03  8451   0.857E-02    0.328E-01
RMM:   7    -0.253764346445E+04   -0.19375E-03   -0.35234E-03  8881   0.509E-02    0.198E-01
RMM:   8    -0.253764347350E+04   -0.90444E-05   -0.68365E-04  5252   0.311E-02
  40 F= -.25376435E+04 E0= -.25375943E+04  d E =-.112243E+00  mag=   254.0000
       N       E                     dE             d eps       ncg     rms          rms(c)
DAV:   1    -0.253686498822E+04    0.77848E+00   -0.21862E+02  7920   0.140E+01    0.528E+00
RMM:   2    -0.253764751844E+04   -0.78253E+00   -0.86175E+00  7623   0.508E+00    0.385E+00
RMM:   3    -0.253792689282E+04   -0.27937E+00   -0.25784E+00  8782   0.159E+00    0.189E+00
RMM:   4    -0.253791870407E+04    0.81888E-02   -0.28096E-01  9273   0.570E-01    0.181E+00
RMM:   5    -0.253791572649E+04    0.29776E-02   -0.96479E-02 10080   0.212E-01    0.133E+00
RMM:   6    -0.253790938263E+04    0.63439E-02   -0.49931E-02  8471   0.234E-01    0.898E-01
RMM:   7    -0.253791111759E+04   -0.17350E-02   -0.29543E-02  9524   0.142E-01    0.537E-01
RMM:   8    -0.253791123275E+04   -0.11516E-03   -0.64440E-03  9003   0.688E-02    0.346E-01
RMM:   9    -0.253791079085E+04    0.44190E-03   -0.27028E-03  7848   0.449E-02    0.188E-01
RMM:  10    -0.253791074206E+04    0.48787E-04   -0.32566E-03  8455   0.518E-02    0.148E-01
RMM:  11    -0.253791078242E+04   -0.40358E-04   -0.65200E-04  4744   0.265E-02
  41 F= -.25379108E+04 E0= -.25378693E+04  d E =-.379552E+00  mag=   254.0000
       N       E                     dE             d eps       ncg     rms          rms(c)
DAV:   1    -0.253377187363E+04    0.41389E+01   -0.87157E+02  7760   0.281E+01    0.110E+01
RMM:   2    -0.253704334561E+04   -0.32715E+01   -0.35495E+01  7552   0.104E+01    0.847E+00
RMM:   3    -0.253818341435E+04   -0.11401E+01   -0.10569E+01  8770   0.328E+00    0.395E+00
RMM:   4    -0.253813916812E+04    0.44246E-01   -0.11617E+00  9461   0.112E+00    0.362E+00
RMM:   5    -0.253811174750E+04    0.27421E-01   -0.38823E-01  9971   0.437E-01    0.255E+00
RMM:   6    -0.253808545604E+04    0.26291E-01   -0.18588E-01  8638   0.416E-01    0.148E+00
RMM:   7    -0.253809041732E+04   -0.49613E-02   -0.10195E-01  9540   0.255E-01    0.861E-01
RMM:   8    -0.253809064419E+04   -0.22687E-03   -0.20606E-02 10031   0.114E-01    0.456E-01
RMM:   9    -0.253808921100E+04    0.14332E-02   -0.10731E-02  9601   0.806E-02    0.314E-01
RMM:  10    -0.253808920273E+04    0.82618E-05   -0.66211E-03  9394   0.704E-02    0.231E-01
RMM:  11    -0.253808931739E+04   -0.11465E-03   -0.20833E-03  7070   0.371E-02    0.124E-01
RMM:  12    -0.253808933730E+04   -0.19914E-04   -0.76641E-04  5168   0.301E-02
  42 F= -.25380893E+04 E0= -.25380598E+04  d E =-.558107E+00  mag=   254.0000
       N       E                     dE             d eps       ncg     rms          rms(c)
DAV:   1    -0.253806865411E+04    0.20663E-01   -0.23573E+01  7680   0.439E+00    0.106E+00
RMM:   2    -0.253814259930E+04   -0.73945E-01   -0.75695E-01  7567   0.148E+00    0.634E-01
RMM:   3    -0.253816689260E+04   -0.24293E-01   -0.23132E-01  8481   0.445E-01    0.380E-01
RMM:   4    -0.253816698465E+04   -0.92051E-04   -0.28174E-02  8882   0.155E-01    0.312E-01
RMM:   5    -0.253816694066E+04    0.43991E-04   -0.10212E-02  8293   0.618E-02    0.213E-01
RMM:   6    -0.253816647983E+04    0.46083E-03   -0.55241E-03  8559   0.733E-02    0.199E-01
RMM:   7    -0.253816662545E+04   -0.14562E-03   -0.24007E-03  7338   0.395E-02    0.981E-02
RMM:   8    -0.253816667581E+04   -0.50361E-04   -0.55801E-04  4791   0.358E-02
  43 F= -.25381667E+04 E0= -.25381380E+04  d E =-.773385E-01  mag=   254.0000
       N       E                     dE             d eps       ncg     rms          rms(c)
DAV:   1    -0.253746862487E+04    0.69800E+00   -0.21194E+02  6880   0.132E+01    0.325E+00
RMM:   2    -0.253815386671E+04   -0.68524E+00   -0.70816E+00  7641   0.450E+00    0.198E+00
RMM:   3    -0.253836913083E+04   -0.21526E+00   -0.20306E+00  8523   0.132E+00    0.117E+00
RMM:   4    -0.253836866078E+04    0.47004E-03   -0.23806E-01  9083   0.438E-01    0.951E-01
RMM:   5    -0.253836753410E+04    0.11267E-02   -0.85790E-02 10000   0.166E-01    0.642E-01
RMM:   6    -0.253836221105E+04    0.53230E-02   -0.42016E-02  8876   0.189E-01    0.585E-01
RMM:   7    -0.253836343557E+04   -0.12245E-02   -0.20344E-02  9367   0.955E-02    0.308E-01
RMM:   8    -0.253836368266E+04   -0.24709E-03   -0.40669E-03  7605   0.633E-02    0.227E-01
RMM:   9    -0.253836364834E+04    0.34323E-04   -0.26320E-03  6666   0.410E-02    0.133E-01
RMM:  10    -0.253836366401E+04   -0.15668E-04   -0.12142E-03  6196   0.337E-02    0.976E-02
RMM:  11    -0.253836375114E+04   -0.87132E-04   -0.91964E-04  4883   0.314E-02
  44 F= -.25383638E+04 E0= -.25383374E+04  d E =-.274414E+00  mag=   254.0000
       N       E                     dE             d eps       ncg     rms          rms(c)
DAV:   1    -0.253494838378E+04    0.34153E+01   -0.84682E+02  6880   0.263E+01    0.672E+00
RMM:   2    -0.253774162203E+04   -0.27932E+01   -0.29220E+01  7657   0.906E+00    0.422E+00
RMM:   3    -0.253860623545E+04   -0.86461E+00   -0.82123E+00  8544   0.267E+00    0.249E+00
RMM:   4    -0.253859322342E+04    0.13012E-01   -0.93076E-01  9048   0.909E-01    0.200E+00
RMM:   5    -0.253858576541E+04    0.74580E-02   -0.34256E-01 10031   0.329E-01    0.134E+00
RMM:   6    -0.253856076303E+04    0.25002E-01   -0.16824E-01  8721   0.395E-01    0.124E+00
RMM:   7    -0.253856610810E+04   -0.53451E-02   -0.85072E-02  9459   0.197E-01    0.711E-01
RMM:   8    -0.253856646906E+04   -0.36096E-03   -0.16501E-02  8995   0.133E-01    0.449E-01
RMM:   9    -0.253856619590E+04    0.27316E-03   -0.11372E-02  9261   0.755E-02    0.289E-01
RMM:  10    -0.253856634070E+04   -0.14480E-03   -0.58405E-03  8679   0.534E-02    0.191E-01
RMM:  11    -0.253856652628E+04   -0.18558E-03   -0.24746E-03  6678   0.420E-02    0.950E-02
RMM:  12    -0.253856663711E+04   -0.11083E-03   -0.11154E-03  5136   0.363E-02    0.804E-02
RMM:  13    -0.253856671135E+04   -0.74241E-04   -0.86950E-04  4686   0.305E-02
  45 F= -.25385667E+04 E0= -.25385436E+04  d E =-.477374E+00  mag=   254.0000
       N       E                     dE             d eps       ncg     rms          rms(c)
DAV:   1    -0.253862054197E+04   -0.53905E-01   -0.48048E+01  7440   0.634E+00    0.231E+00
RMM:   2    -0.253881444240E+04   -0.19390E+00   -0.19052E+00  7937   0.228E+00    0.141E+00
RMM:   3    -0.253887143327E+04   -0.56991E-01   -0.47996E-01  8730   0.636E-01    0.600E-01
RMM:   4    -0.253887107482E+04    0.35845E-03   -0.60722E-02  9077   0.238E-01    0.483E-01
RMM:   5    -0.253887026723E+04    0.80758E-03   -0.20559E-02  9427   0.963E-02    0.361E-01
RMM:   6    -0.253886950302E+04    0.76421E-03   -0.91637E-03  9037   0.780E-02    0.176E-01
RMM:   7    -0.253886981088E+04   -0.30786E-03   -0.40782E-03  8187   0.485E-02    0.105E-01
RMM:   8    -0.253886986177E+04   -0.50890E-04   -0.84644E-04  5168   0.328E-02
  46 F= -.25388699E+04 E0= -.25388463E+04  d E =-.303150E+00  mag=   254.0000
       N       E                     dE             d eps       ncg     rms          rms(c)
DAV:   1    -0.253729507801E+04    0.15747E+01   -0.43207E+02  7120   0.190E+01    0.677E+00
RMM:   2    -0.253903809943E+04   -0.17430E+01   -0.17360E+01  7988   0.680E+00    0.388E+00
RMM:   3    -0.253953818596E+04   -0.50009E+00   -0.42143E+00  8671   0.189E+00    0.177E+00
RMM:   4    -0.253953369446E+04    0.44915E-02   -0.53136E-01  8802   0.744E-01    0.149E+00
RMM:   5    -0.253952940422E+04    0.42902E-02   -0.17574E-01  9818   0.278E-01    0.105E+00
RMM:   6    -0.253951927205E+04    0.10132E-01   -0.76834E-02  9164   0.231E-01    0.608E-01
RMM:   7    -0.253952121189E+04   -0.19398E-02   -0.38158E-02  9662   0.139E-01    0.321E-01
RMM:   8    -0.253952174824E+04   -0.53635E-03   -0.82316E-03  9079   0.729E-02    0.274E-01
RMM:   9    -0.253952197767E+04   -0.22944E-03   -0.41507E-03  7974   0.425E-02    0.168E-01
RMM:  10    -0.253952207322E+04   -0.95545E-04   -0.23722E-03  7205   0.438E-02    0.128E-01
RMM:  11    -0.253952227092E+04   -0.19770E-03   -0.14884E-03  5916   0.348E-02    0.750E-02
RMM:  12    -0.253952233193E+04   -0.61008E-04   -0.62316E-04  4262   0.345E-02
  47 F= -.25395223E+04 E0= -.25394966E+04  d E =-.955621E+00  mag=   254.0000
       N       E                     dE             d eps       ncg     rms          rms(c)
DAV:   1    -0.253052102617E+04    0.90012E+01   -0.17245E+03  7120   0.380E+01    0.138E+01
RMM:   2    -0.253769580847E+04   -0.71748E+01   -0.73216E+01  7977   0.137E+01    0.851E+00
RMM:   3    -0.253973037551E+04   -0.20346E+01   -0.17479E+01  8699   0.385E+00    0.397E+00
RMM:   4    -0.253966647504E+04    0.63900E-01   -0.21101E+00  8697   0.162E+00    0.339E+00
RMM:   5    -0.253965564411E+04    0.10831E-01   -0.72674E-01  9945   0.559E-01    0.228E+00
RMM:   6    -0.253959616241E+04    0.59482E-01   -0.33918E-01  8968   0.520E-01    0.172E+00
RMM:   7    -0.253960313707E+04   -0.69747E-02   -0.18896E-01  9638   0.304E-01    0.927E-01
RMM:   8    -0.253960424313E+04   -0.11061E-02   -0.34768E-02  9757   0.182E-01    0.682E-01
RMM:   9    -0.253960477856E+04   -0.53543E-03   -0.18759E-02  9951   0.927E-02    0.445E-01
RMM:  10    -0.253960512800E+04   -0.34944E-03   -0.13216E-02  9812   0.860E-02    0.292E-01
RMM:  11    -0.253960557436E+04   -0.44636E-03   -0.46956E-03  8018   0.487E-02    0.165E-01
RMM:  12    -0.253960558284E+04   -0.84772E-05   -0.13244E-03  6055   0.435E-02    0.940E-02
RMM:  13    -0.253960569252E+04   -0.10968E-03   -0.17481E-03  6284   0.371E-02    0.658E-02
RMM:  14    -0.253960573572E+04   -0.43195E-04   -0.50620E-04  4409   0.348E-02
  48 F= -.25396057E+04 E0= -.25395720E+04  d E =-.103902E+01  mag=   254.0000
       N       E                     dE             d eps       ncg     rms          rms(c)
DAV:   1    -0.253762865337E+04    0.19770E+01   -0.38819E+02  7360   0.182E+01    0.746E+00
RMM:   2    -0.253929374862E+04   -0.16651E+01   -0.16118E+01  7824   0.685E+00    0.585E+00
RMM:   3    -0.253979892514E+04   -0.50518E+00   -0.42389E+00  8578   0.198E+00    0.219E+00
RMM:   4    -0.253979606081E+04    0.28643E-02   -0.52555E-01  9331   0.681E-01    0.178E+00
RMM:   5    -0.253978382876E+04    0.12232E-01   -0.15955E-01  9648   0.272E-01    0.132E+00
RMM:   6    -0.253977550010E+04    0.83287E-02   -0.66507E-02  9166   0.211E-01    0.718E-01
RMM:   7    -0.253977687610E+04   -0.13760E-02   -0.28130E-02  9663   0.130E-01    0.407E-01
RMM:   8    -0.253977698535E+04   -0.10925E-03   -0.59453E-03  8643   0.659E-02    0.246E-01
RMM:   9    -0.253977707515E+04   -0.89799E-04   -0.28174E-03  7808   0.407E-02    0.158E-01
RMM:  10    -0.253977709059E+04   -0.15440E-04   -0.15303E-03  6916   0.403E-02    0.112E-01
RMM:  11    -0.253977715215E+04   -0.61561E-04   -0.66617E-04  4762   0.285E-02
  49 F= -.25397772E+04 E0= -.25397478E+04  d E =-.121044E+01  mag=   254.0000
       N       E                     dE             d eps       ncg     rms          rms(c)
DAV:   1    -0.253977191361E+04    0.51770E-02   -0.74078E+01  7760   0.799E+00    0.278E+00
RMM:   2    -0.254004723821E+04   -0.27532E+00   -0.31357E+00  8026   0.296E+00    0.256E+00
RMM:   3    -0.254012475039E+04   -0.77512E-01   -0.72305E-01  8885   0.829E-01    0.121E+00
RMM:   4    -0.254012262880E+04    0.21216E-02   -0.89439E-02  9271   0.285E-01    0.901E-01
RMM:   5    -0.254011840065E+04    0.42281E-02   -0.34430E-02  9013   0.161E-01    0.784E-01
RMM:   6    -0.254011861054E+04   -0.20989E-03   -0.15492E-02  9505   0.969E-02    0.351E-01
RMM:   7    -0.254011885677E+04   -0.24623E-03   -0.39754E-03  8054   0.489E-02    0.167E-01
RMM:   8    -0.254011870055E+04    0.15622E-03   -0.11939E-03  6054   0.383E-02    0.125E-01
RMM:   9    -0.254011862720E+04    0.73352E-04   -0.66242E-04  4961   0.304E-02
  50 F= -.25401186E+04 E0= -.25400877E+04  d E =-.341475E+00  mag=   254.0000
       N       E                     dE             d eps       ncg     rms          rms(c)
DAV:   1    -0.253764476461E+04    0.24739E+01   -0.66650E+02  7680   0.240E+01    0.927E+00
RMM:   2    -0.254019630761E+04   -0.25515E+01   -0.28590E+01  7785   0.912E+00    0.917E+00
RMM:   3    -0.254098473011E+04   -0.78842E+00   -0.74207E+00  8856   0.271E+00    0.422E+00
RMM:   4    -0.254096226737E+04    0.22463E-01   -0.89601E-01  9468   0.912E-01    0.325E+00
RMM:   5    -0.254092331935E+04    0.38948E-01   -0.34289E-01  9186   0.473E-01    0.262E+00
RMM:   6    -0.254092198159E+04    0.13378E-02   -0.15857E-01  9541   0.314E-01    0.124E+00
RMM:   7    -0.254092571212E+04   -0.37305E-02   -0.49614E-02 10097   0.165E-01    0.600E-01
RMM:   8    -0.254092465034E+04    0.10618E-02   -0.15648E-02 10182   0.921E-02    0.390E-01
RMM:   9    -0.254092433500E+04    0.31535E-03   -0.79905E-03  9879   0.601E-02    0.229E-01
RMM:  10    -0.254092434853E+04   -0.13533E-04   -0.41649E-03  9054   0.544E-02    0.143E-01
RMM:  11    -0.254092443548E+04   -0.86945E-04   -0.14157E-03  5853   0.341E-02    0.857E-02
RMM:  12    -0.254092448923E+04   -0.53758E-04   -0.65678E-04  4737   0.304E-02
  51 F= -.25409245E+04 E0= -.25408884E+04  d E =-.114734E+01  mag=   254.0000
       N       E                     dE             d eps       ncg     rms          rms(c)
DAV:   1    -0.252724777539E+04    0.13677E+02   -0.26469E+03  7600   0.480E+01    0.223E+01
RMM:   2    -0.253835234059E+04   -0.11105E+02   -0.12286E+02  7603   0.190E+01    0.231E+01
RMM:   3    -0.254188878610E+04   -0.35364E+01   -0.33728E+01  8824   0.588E+00    0.103E+01
RMM:   4    -0.254166744438E+04    0.22134E+00   -0.38423E+00  9416   0.199E+00    0.838E+00
RMM:   5    -0.254150457917E+04    0.16287E+00   -0.14856E+00  9426   0.909E-01    0.620E+00
RMM:   6    -0.254145408490E+04    0.50494E-01   -0.61461E-01  9499   0.647E-01    0.347E+00
RMM:   7    -0.254146487593E+04   -0.10791E-01   -0.25726E-01  9545   0.405E-01    0.161E+00
RMM:   8    -0.254146551171E+04   -0.63578E-03   -0.67675E-02 10028   0.224E-01    0.847E-01
RMM:   9    -0.254146482139E+04    0.69032E-03   -0.31020E-02 10441   0.113E-01    0.520E-01
RMM:  10    -0.254146405548E+04    0.76590E-03   -0.17612E-02 10240   0.108E-01    0.298E-01
RMM:  11    -0.254146453646E+04   -0.48097E-03   -0.68035E-03  9565   0.584E-02    0.176E-01
RMM:  12    -0.254146462369E+04   -0.87236E-04   -0.19938E-03  7274   0.430E-02    0.128E-01
RMM:  13    -0.254146473875E+04   -0.11506E-03   -0.16702E-03  5468   0.351E-02    0.808E-02
RMM:  14    -0.254146479401E+04   -0.55256E-04   -0.76274E-04  4747   0.365E-02
  52 F= -.25414648E+04 E0= -.25414250E+04  d E =-.168764E+01  mag=   254.0000
       N       E                     dE             d eps       ncg     rms          rms(c)
DAV:   1    -0.253951387511E+04    0.19509E+01   -0.52113E+02  6160   0.199E+01    0.658E+00
RMM:   2    -0.254160256939E+04   -0.20887E+01   -0.19782E+01  7819   0.722E+00    0.364E+00
RMM:   3    -0.254219144496E+04   -0.58888E+00   -0.49616E+00  8653   0.204E+00    0.190E+00
RMM:   4    -0.254219077629E+04    0.66867E-03   -0.57847E-01  9136   0.719E-01    0.156E+00
RMM:   5    -0.254218872966E+04    0.20466E-02   -0.21238E-01 10242   0.259E-01    0.113E+00
RMM:   6    -0.254217283929E+04    0.15890E-01   -0.98103E-02  8921   0.286E-01    0.856E-01
RMM:   7    -0.254217530872E+04   -0.24694E-02   -0.56328E-02  9393   0.166E-01    0.478E-01
RMM:   8    -0.254217616792E+04   -0.85920E-03   -0.12060E-02  9435   0.106E-01    0.323E-01
RMM:   9    -0.254217626593E+04   -0.98009E-04   -0.63259E-03  8424   0.493E-02    0.192E-01
RMM:  10    -0.254217620622E+04    0.59717E-04   -0.29031E-03  7865   0.495E-02    0.136E-01
RMM:  11    -0.254217634430E+04   -0.13808E-03   -0.19878E-03  6276   0.355E-02    0.818E-02
RMM:  12    -0.254217642780E+04   -0.83496E-04   -0.77930E-04  4762   0.390E-02
  53 F= -.25421764E+04 E0= -.25421393E+04  d E =-.711634E+00  mag=   254.0000
       N       E                     dE             d eps       ncg     rms          rms(c)
DAV:   1    -0.254038787410E+04    0.17885E+01   -0.42528E+02  6240   0.180E+01    0.592E+00
RMM:   2    -0.254209315420E+04   -0.17053E+01   -0.16096E+01  7819   0.653E+00    0.322E+00
RMM:   3    -0.254257305009E+04   -0.47990E+00   -0.40328E+00  8644   0.183E+00    0.170E+00
RMM:   4    -0.254257295549E+04    0.94593E-04   -0.46310E-01  9194   0.629E-01    0.138E+00
RMM:   5    -0.254256952389E+04    0.34316E-02   -0.16814E-01 10095   0.232E-01    0.100E+00
RMM:   6    -0.254255711204E+04    0.12412E-01   -0.78143E-02  8925   0.256E-01    0.697E-01
RMM:   7    -0.254255929973E+04   -0.21877E-02   -0.43606E-02  9338   0.146E-01    0.379E-01
RMM:   8    -0.254255984733E+04   -0.54760E-03   -0.85002E-03  9346   0.900E-02    0.281E-01
RMM:   9    -0.254256000692E+04   -0.15958E-03   -0.49971E-03  7931   0.432E-02    0.161E-01
RMM:  10    -0.254255995245E+04    0.54465E-04   -0.19773E-03  7138   0.471E-02    0.128E-01
RMM:  11    -0.254256007072E+04   -0.11827E-03   -0.15962E-03  5672   0.347E-02    0.667E-02
RMM:  12    -0.254256013334E+04   -0.62624E-04   -0.54397E-04  4560   0.392E-02
  54 F= -.25425601E+04 E0= -.25425262E+04  d E =-.109534E+01  mag=   254.0000
       N       E                     dE             d eps       ncg     rms          rms(c)
DAV:   1    -0.253360584882E+04    0.89542E+01   -0.16957E+03  6400   0.360E+01    0.124E+01
RMM:   2    -0.254061659952E+04   -0.70108E+01   -0.67736E+01  7823   0.132E+01    0.750E+00
RMM:   3    -0.254255750524E+04   -0.19409E+01   -0.16528E+01  8659   0.373E+00    0.389E+00
RMM:   4    -0.254251456370E+04    0.42942E-01   -0.17937E+00  9004   0.135E+00    0.313E+00
RMM:   5    -0.254250365297E+04    0.10911E-01   -0.68751E-01 10264   0.472E-01    0.220E+00
RMM:   6    -0.254243747148E+04    0.66181E-01   -0.34000E-01  8674   0.565E-01    0.174E+00
RMM:   7    -0.254244641216E+04   -0.89407E-02   -0.19596E-01  9352   0.317E-01    0.104E+00
RMM:   8    -0.254244615891E+04    0.25325E-03   -0.33556E-02  9471   0.189E-01    0.592E-01
RMM:   9    -0.254244619007E+04   -0.31161E-04   -0.20771E-02  9886   0.953E-02    0.354E-01
RMM:  10    -0.254244613406E+04    0.56008E-04   -0.97989E-03  9800   0.761E-02    0.238E-01
RMM:  11    -0.254244640783E+04   -0.27376E-03   -0.39480E-03  7034   0.458E-02    0.149E-01
RMM:  12    -0.254244649466E+04   -0.86830E-04   -0.11350E-03  5911   0.491E-02    0.938E-02
RMM:  13    -0.254244662794E+04   -0.13328E-03   -0.15097E-03  5466   0.382E-02    0.696E-02
RMM:  14    -0.254244668112E+04   -0.53174E-04   -0.54413E-04  4604   0.402E-02
  55 F= -.25424467E+04 E0= -.25424165E+04  d E =-.981887E+00  mag=   254.0000
       N       E                     dE             d eps       ncg     rms          rms(c)
DAV:   1    -0.253860883117E+04    0.38378E+01   -0.72461E+02  6240   0.237E+01    0.960E+00
RMM:   2    -0.254180270424E+04   -0.31939E+01   -0.29850E+01  7762   0.922E+00    0.768E+00
RMM:   3    -0.254271124068E+04   -0.90854E+00   -0.76479E+00  8563   0.263E+00    0.272E+00
RMM:   4    -0.254269562001E+04    0.15621E-01   -0.86156E-01  9366   0.878E-01    0.203E+00
RMM:   5    -0.254267817720E+04    0.17443E-01   -0.30715E-01  9853   0.360E-01    0.159E+00
RMM:   6    -0.254266188331E+04    0.16294E-01   -0.12650E-01  9279   0.277E-01    0.978E-01
RMM:   7    -0.254266225166E+04   -0.36835E-03   -0.54025E-02  9542   0.174E-01    0.475E-01
RMM:   8    -0.254266250322E+04   -0.25156E-03   -0.11525E-02  9727   0.993E-02    0.278E-01
RMM:   9    -0.254266300478E+04   -0.50156E-03   -0.58781E-03  9194   0.481E-02    0.175E-01
RMM:  10    -0.254266310380E+04   -0.99028E-04   -0.17123E-03  7135   0.440E-02    0.125E-01
RMM:  11    -0.254266321519E+04   -0.11138E-03   -0.12019E-03  5367   0.329E-02    0.704E-02
RMM:  12    -0.254266323658E+04   -0.21394E-04   -0.48887E-04  4581   0.360E-02
  56 F= -.25426632E+04 E0= -.25426311E+04  d E =-.119844E+01  mag=   254.0000
       N       E                     dE             d eps       ncg     rms          rms(c)
DAV:   1    -0.254176526077E+04    0.89795E+00   -0.37585E+02  7440   0.184E+01    0.615E+00
RMM:   2    -0.254335882484E+04   -0.15936E+01   -0.16213E+01  8111   0.669E+00    0.597E+00
RMM:   3    -0.254372689118E+04   -0.36807E+00   -0.33346E+00  8747   0.179E+00    0.242E+00
RMM:   4    -0.254371441168E+04    0.12479E-01   -0.42487E-01  9199   0.651E-01    0.168E+00
RMM:   5    -0.254370452646E+04    0.98852E-02   -0.15533E-01  9667   0.292E-01    0.144E+00
RMM:   6    -0.254369986164E+04    0.46648E-02   -0.67609E-02  9189   0.215E-01    0.819E-01
RMM:   7    -0.254370166936E+04   -0.18077E-02   -0.23792E-02  9863   0.123E-01    0.364E-01
RMM:   8    -0.254370156669E+04    0.10267E-03   -0.55642E-03  9238   0.638E-02    0.251E-01
RMM:   9    -0.254370152199E+04    0.44704E-04   -0.28693E-03  8272   0.409E-02    0.154E-01
RMM:  10    -0.254370150203E+04    0.19963E-04   -0.13861E-03  6977   0.413E-02    0.897E-02
RMM:  11    -0.254370155935E+04   -0.57325E-04   -0.62754E-04  4986   0.325E-02
  57 F= -.25437016E+04 E0= -.25436684E+04  d E =-.103832E+01  mag=   254.0000
       N       E                     dE             d eps       ncg     rms          rms(c)
DAV:   1    -0.253913320682E+04    0.45683E+01   -0.97711E+02  7280   0.298E+01    0.109E+01
RMM:   2    -0.254354845420E+04   -0.44152E+01   -0.45249E+01  7993   0.117E+01    0.115E+01
RMM:   3    -0.254475587786E+04   -0.12074E+01   -0.11030E+01  8815   0.333E+00    0.457E+00
RMM:   4    -0.254473854661E+04    0.17331E-01   -0.14944E+00  9102   0.118E+00    0.303E+00
RMM:   5    -0.254470776157E+04    0.30785E-01   -0.46774E-01  9730   0.505E-01    0.263E+00
RMM:   6    -0.254468942082E+04    0.18341E-01   -0.21097E-01  9273   0.373E-01    0.164E+00
RMM:   7    -0.254469503882E+04   -0.56180E-02   -0.85550E-02  9796   0.232E-01    0.690E-01
RMM:   8    -0.254469428140E+04    0.75742E-03   -0.18707E-02  9881   0.123E-01    0.495E-01
RMM:   9    -0.254469416379E+04    0.11761E-03   -0.96098E-03 10155   0.659E-02    0.270E-01
RMM:  10    -0.254469410818E+04    0.55613E-04   -0.69534E-03  9807   0.673E-02    0.151E-01
RMM:  11    -0.254469423130E+04   -0.12312E-03   -0.17287E-03  6832   0.367E-02    0.964E-02
RMM:  12    -0.254469424559E+04   -0.14290E-04   -0.55315E-04  4858   0.342E-02
  58 F= -.25446942E+04 E0= -.25446606E+04  d E =-.203101E+01  mag=   254.0000
       N       E                     dE             d eps       ncg     rms          rms(c)
DAV:   1    -0.251948898074E+04    0.25205E+02   -0.38566E+03  7200   0.597E+01    0.283E+01
RMM:   2    -0.253916967497E+04   -0.19681E+02   -0.20518E+02  7824   0.246E+01    0.303E+01
RMM:   3    -0.254452935796E+04   -0.53597E+01   -0.50317E+01  8726   0.704E+00    0.124E+01
RMM:   4    -0.254405695534E+04    0.47240E+00   -0.60336E+00  8836   0.266E+00    0.842E+00
RMM:   5    -0.254394938228E+04    0.10757E+00   -0.24576E+00  9684   0.110E+00    0.689E+00
RMM:   6    -0.254383826797E+04    0.11111E+00   -0.85807E-01  9532   0.772E-01    0.463E+00
RMM:   7    -0.254383375963E+04    0.45083E-02   -0.38429E-01  9245   0.531E-01    0.188E+00
RMM:   8    -0.254383961050E+04   -0.58509E-02   -0.10752E-01  9791   0.320E-01    0.119E+00
RMM:   9    -0.254384018959E+04   -0.57908E-03   -0.38876E-02 10427   0.137E-01    0.568E-01
RMM:  10    -0.254383937363E+04    0.81596E-03   -0.22948E-02 10085   0.121E-01    0.383E-01
RMM:  11    -0.254383967503E+04   -0.30140E-03   -0.86655E-03 10074   0.756E-02    0.236E-01
RMM:  12    -0.254383977922E+04   -0.10419E-03   -0.28381E-03  8504   0.503E-02    0.148E-01
RMM:  13    -0.254383988678E+04   -0.10755E-03   -0.16032E-03  6796   0.357E-02    0.102E-01
RMM:  14    -0.254383992651E+04   -0.39731E-04   -0.72374E-04  5240   0.413E-02
  59 F= -.25438399E+04 E0= -.25438114E+04  d E =-.117669E+01  mag=   254.0000
       N       E                     dE             d eps       ncg     rms          rms(c)
DAV:   1    -0.253219282446E+04    0.11647E+02   -0.21468E+03  6880   0.435E+01    0.155E+01
RMM:   2    -0.254265423236E+04   -0.10461E+02   -0.11127E+02  8160   0.174E+01    0.133E+01
RMM:   3    -0.254518576793E+04   -0.25315E+01   -0.23581E+01  8809   0.463E+00    0.540E+00
RMM:   4    -0.254497061014E+04    0.21516E+00   -0.28570E+00  9006   0.176E+00    0.381E+00
RMM:   5    -0.254487202697E+04    0.98583E-01   -0.12122E+00  9602   0.867E-01    0.336E+00
RMM:   6    -0.254484866731E+04    0.23360E-01   -0.48146E-01  9800   0.513E-01    0.187E+00
RMM:   7    -0.254484927124E+04   -0.60393E-03   -0.14938E-01  9825   0.326E-01    0.104E+00
RMM:   8    -0.254484942616E+04   -0.15492E-03   -0.51119E-02  9543   0.219E-01    0.824E-01
RMM:   9    -0.254485052913E+04   -0.11030E-02   -0.22946E-02 10221   0.119E-01    0.438E-01
RMM:  10    -0.254485117247E+04   -0.64334E-03   -0.89272E-03 10290   0.673E-02    0.256E-01
RMM:  11    -0.254485140615E+04   -0.23368E-03   -0.35310E-03  9110   0.492E-02    0.153E-01
RMM:  12    -0.254485152815E+04   -0.12199E-03   -0.16068E-03  7251   0.398E-02    0.101E-01
RMM:  13    -0.254485161681E+04   -0.88656E-04   -0.84588E-04  5367   0.352E-02
  60 F= -.25448516E+04 E0= -.25448188E+04  d E =-.218838E+01  mag=   254.0000
       N       E                     dE             d eps       ncg     rms          rms(c)
DAV:   1    -0.254156791857E+04    0.32836E+01   -0.75485E+02  7360   0.254E+01    0.106E+01
RMM:   2    -0.254494693583E+04   -0.33790E+01   -0.34227E+01  8107   0.965E+00    0.640E+00
RMM:   3    -0.254587100584E+04   -0.92407E+00   -0.73173E+00  8633   0.261E+00    0.270E+00
RMM:   4    -0.254583678536E+04    0.34220E-01   -0.85478E-01  9007   0.100E+00    0.214E+00
RMM:   5    -0.254581361918E+04    0.23166E-01   -0.31310E-01  9493   0.413E-01    0.148E+00
RMM:   6    -0.254580273927E+04    0.10880E-01   -0.11712E-01  9561   0.289E-01    0.852E-01
RMM:   7    -0.254580536252E+04   -0.26233E-02   -0.51644E-02  9863   0.168E-01    0.433E-01
RMM:   8    -0.254580628950E+04   -0.92697E-03   -0.12057E-02  9933   0.928E-02    0.299E-01
RMM:   9    -0.254580652348E+04   -0.23399E-03   -0.53869E-03  9194   0.536E-02    0.213E-01
RMM:  10    -0.254580667523E+04   -0.15175E-03   -0.24633E-03  8145   0.451E-02    0.114E-01
RMM:  11    -0.254580684401E+04   -0.16878E-03   -0.12672E-03  6252   0.367E-02    0.602E-02
RMM:  12    -0.254580688639E+04   -0.42377E-04   -0.46166E-04  4736   0.340E-02
  61 F= -.25458069E+04 E0= -.25457762E+04  d E =-.955270E+00  mag=   254.0000
       N       E                     dE             d eps       ncg     rms          rms(c)
DAV:   1    -0.254463866774E+04    0.11682E+01   -0.23588E+02  7520   0.142E+01    0.617E+00
RMM:   2    -0.254568445943E+04   -0.10458E+01   -0.10488E+01  8037   0.545E+00    0.444E+00
RMM:   3    -0.254598660633E+04   -0.30215E+00   -0.23869E+00  8641   0.151E+00    0.165E+00
RMM:   4    -0.254597889623E+04    0.77101E-02   -0.28504E-01  9121   0.567E-01    0.124E+00
RMM:   5    -0.254597013887E+04    0.87574E-02   -0.10596E-01  9415   0.254E-01    0.904E-01
RMM:   6    -0.254596833588E+04    0.18030E-02   -0.38883E-02  9707   0.160E-01    0.476E-01
RMM:   7    -0.254596964132E+04   -0.13054E-02   -0.15739E-02  9957   0.923E-02    0.254E-01
RMM:   8    -0.254596974593E+04   -0.10461E-03   -0.34708E-03  8368   0.515E-02    0.165E-01
RMM:   9    -0.254596978778E+04   -0.41851E-04   -0.17058E-03  6607   0.384E-02    0.105E-01
RMM:  10    -0.254596987042E+04   -0.82638E-04   -0.95561E-04  6002   0.372E-02
  62 F= -.25459699E+04 E0= -.25459406E+04  d E =-.111825E+01  mag=   254.0000
       N       E                     dE             d eps       ncg     rms          rms(c)
DAV:   1    -0.254272367232E+04    0.32461E+01   -0.71284E+02  7200   0.241E+01    0.107E+01
RMM:   2    -0.254588933083E+04   -0.31657E+01   -0.32034E+01  7679   0.100E+01    0.107E+01
RMM:   3    -0.254686194428E+04   -0.97261E+00   -0.85379E+00  8621   0.298E+00    0.409E+00
RMM:   4    -0.254685316013E+04    0.87842E-02   -0.99754E-01  9290   0.979E-01    0.302E+00
RMM:   5    -0.254683477393E+04    0.18386E-01   -0.32993E-01  9754   0.403E-01    0.238E+00
RMM:   6    -0.254681791580E+04    0.16858E-01   -0.15615E-01  9050   0.330E-01    0.129E+00
RMM:   7    -0.254682261087E+04   -0.46951E-02   -0.69616E-02  9761   0.212E-01    0.581E-01
RMM:   8    -0.254682242317E+04    0.18770E-03   -0.13748E-02  9916   0.101E-01    0.331E-01
RMM:   9    -0.254682198482E+04    0.43834E-03   -0.72147E-03  9852   0.578E-02    0.194E-01
RMM:  10    -0.254682192061E+04    0.64217E-04   -0.41118E-03  9265   0.575E-02    0.147E-01
RMM:  11    -0.254682200372E+04   -0.83111E-04   -0.12262E-03  6161   0.331E-02    0.745E-02
RMM:  12    -0.254682203714E+04   -0.33420E-04   -0.46893E-04  4693   0.324E-02
  63 F= -.25468220E+04 E0= -.25467943E+04  d E =-.852167E+00  mag=   254.0000
       N       E                     dE             d eps       ncg     rms          rms(c)
DAV:   1    -0.254577073621E+04    0.10513E+01   -0.22555E+02  6960   0.135E+01    0.561E+00
RMM:   2    -0.254677056357E+04   -0.99983E+00   -0.10146E+01  7920   0.551E+00    0.553E+00
RMM:   3    -0.254704723332E+04   -0.27667E+00   -0.23896E+00  8691   0.154E+00    0.206E+00
RMM:   4    -0.254704490486E+04    0.23285E-02   -0.28632E-01  9368   0.503E-01    0.146E+00
RMM:   5    -0.254703686742E+04    0.80374E-02   -0.96417E-02  9631   0.227E-01    0.116E+00
RMM:   6    -0.254703371134E+04    0.31561E-02   -0.50512E-02  8952   0.186E-01    0.564E-01
RMM:   7    -0.254703529115E+04   -0.15798E-02   -0.17313E-02  9944   0.103E-01    0.264E-01
RMM:   8    -0.254703497409E+04    0.31706E-03   -0.35831E-03  8498   0.494E-02    0.163E-01
RMM:   9    -0.254703485870E+04    0.11539E-03   -0.22279E-03  7375   0.390E-02    0.983E-02
RMM:  10    -0.254703486075E+04   -0.20447E-05   -0.11412E-03  6813   0.389E-02    0.688E-02
RMM:  11    -0.254703490069E+04   -0.39945E-04   -0.48648E-04  4496   0.296E-02
  64 F= -.25470349E+04 E0= -.25470078E+04  d E =-.106503E+01  mag=   254.0000
       N       E                     dE             d eps       ncg     rms          rms(c)
DAV:   1    -0.254678481547E+04    0.25005E+00   -0.50816E+01  7360   0.642E+00    0.255E+00
RMM:   2    -0.254701234199E+04   -0.22753E+00   -0.23153E+00  8073   0.257E+00    0.245E+00
RMM:   3    -0.254707049080E+04   -0.58149E-01   -0.49609E-01  8771   0.689E-01    0.912E-01
RMM:   4    -0.254706961581E+04    0.87499E-03   -0.59950E-02  9398   0.228E-01    0.644E-01
RMM:   5    -0.254706763260E+04    0.19832E-02   -0.21152E-02  9540   0.107E-01    0.500E-01
RMM:   6    -0.254706709651E+04    0.53609E-03   -0.11749E-02  8843   0.920E-02    0.235E-01
RMM:   7    -0.254706740124E+04   -0.30473E-03   -0.33369E-03  8661   0.477E-02    0.117E-01
RMM:   8    -0.254706731005E+04    0.91190E-04   -0.60813E-04  5236   0.307E-02
  65 F= -.25470673E+04 E0= -.25470404E+04  d E =-.109744E+01  mag=   254.0000
       N       E                     dE             d eps       ncg     rms          rms(c)
DAV:   1    -0.254438122930E+04    0.26862E+01   -0.62262E+02  6400   0.222E+01    0.722E+00
RMM:   2    -0.254710883215E+04   -0.27276E+01   -0.27180E+01  7864   0.886E+00    0.404E+00
RMM:   3    -0.254786723762E+04   -0.75841E+00   -0.65793E+00  8698   0.250E+00    0.216E+00
RMM:   4    -0.254787351720E+04   -0.62796E-02   -0.79904E-01  9203   0.787E-01    0.171E+00
RMM:   5    -0.254785438898E+04    0.19128E-01   -0.24535E-01  9895   0.324E-01    0.127E+00
RMM:   6    -0.254783961204E+04    0.14777E-01   -0.11223E-01  9360   0.274E-01    0.756E-01
RMM:   7    -0.254784116134E+04   -0.15493E-02   -0.62109E-02  9278   0.189E-01    0.371E-01
RMM:   8    -0.254784222562E+04   -0.10643E-02   -0.13834E-02  9892   0.101E-01    0.264E-01
RMM:   9    -0.254784215058E+04    0.75047E-04   -0.62860E-03  9170   0.564E-02    0.217E-01
RMM:  10    -0.254784212165E+04    0.28921E-04   -0.25286E-03  8125   0.449E-02    0.111E-01
RMM:  11    -0.254784225779E+04   -0.13614E-03   -0.17396E-03  6938   0.377E-02    0.676E-02
RMM:  12    -0.254784232785E+04   -0.70062E-04   -0.61828E-04  4947   0.349E-02
  66 F= -.25478423E+04 E0= -.25478162E+04  d E =-.775018E+00  mag=   254.0000
       N       E                     dE             d eps       ncg     rms          rms(c)
DAV:   1    -0.254639556015E+04    0.14467E+01   -0.30999E+02  6400   0.157E+01    0.506E+00
RMM:   2    -0.254775240097E+04   -0.13568E+01   -0.13408E+01  7880   0.625E+00    0.289E+00
RMM:   3    -0.254812244478E+04   -0.37004E+00   -0.31776E+00  8695   0.175E+00    0.150E+00
RMM:   4    -0.254812790603E+04   -0.54612E-02   -0.39981E-01  9358   0.538E-01    0.120E+00
RMM:   5    -0.254811826044E+04    0.96456E-02   -0.12123E-01  9798   0.227E-01    0.875E-01
RMM:   6    -0.254811145670E+04    0.68037E-02   -0.59680E-02  9247   0.202E-01    0.508E-01
RMM:   7    -0.254811308215E+04   -0.16255E-02   -0.30318E-02  9489   0.128E-01    0.247E-01
RMM:   8    -0.254811327977E+04   -0.19762E-03   -0.56549E-03  9351   0.676E-02    0.177E-01
RMM:   9    -0.254811324030E+04    0.39467E-04   -0.33621E-03  8112   0.445E-02    0.147E-01
RMM:  10    -0.254811325472E+04   -0.14417E-04   -0.11172E-03  6217   0.372E-02    0.733E-02
RMM:  11    -0.254811335486E+04   -0.10014E-03   -0.96511E-04  5263   0.331E-02    0.430E-02
RMM:  12    -0.254811339502E+04   -0.40163E-04   -0.35112E-04  4249   0.345E-02
  67 F= -.25481134E+04 E0= -.25480880E+04  d E =-.104608E+01  mag=   254.0000
       N       E                     dE             d eps       ncg     rms          rms(c)
DAV:   1    -0.254083565264E+04    0.72777E+01   -0.12365E+03  6480   0.314E+01    0.105E+01
RMM:   2    -0.254645926991E+04   -0.56236E+01   -0.56580E+01  7860   0.126E+01    0.634E+00
RMM:   3    -0.254795135622E+04   -0.14921E+01   -0.13058E+01  8698   0.356E+00    0.328E+00
RMM:   4    -0.254794599335E+04    0.53629E-02   -0.16059E+00  9103   0.117E+00    0.254E+00
RMM:   5    -0.254790746349E+04    0.38530E-01   -0.49944E-01  9828   0.474E-01    0.183E+00
RMM:   6    -0.254787300358E+04    0.34460E-01   -0.23972E-01  9255   0.413E-01    0.108E+00
RMM:   7    -0.254787533363E+04   -0.23300E-02   -0.11858E-01  9491   0.257E-01    0.565E-01
RMM:   8    -0.254787692915E+04   -0.15955E-02   -0.26002E-02  9867   0.146E-01    0.359E-01
RMM:   9    -0.254787716677E+04   -0.23762E-03   -0.12124E-02 10119   0.713E-02    0.259E-01
RMM:  10    -0.254787726235E+04   -0.95582E-04   -0.47991E-03  9346   0.564E-02    0.156E-01
RMM:  11    -0.254787749275E+04   -0.23040E-03   -0.26317E-03  7409   0.402E-02    0.845E-02
RMM:  12    -0.254787760136E+04   -0.10861E-03   -0.84660E-04  5451   0.413E-02    0.651E-02
RMM:  13    -0.254787768349E+04   -0.82130E-04   -0.78978E-04  4675   0.349E-02
  68 F= -.25478777E+04 E0= -.25478530E+04  d E =-.810373E+00  mag=   254.0000
       N       E                     dE             d eps       ncg     rms          rms(c)
DAV:   1    -0.254396526297E+04    0.39123E+01   -0.72753E+02  6960   0.243E+01    0.103E+01
RMM:   2    -0.254731767413E+04   -0.33524E+01   -0.32726E+01  7887   0.985E+00    0.105E+01
RMM:   3    -0.254819766476E+04   -0.87999E+00   -0.75721E+00  8575   0.279E+00    0.375E+00
RMM:   4    -0.254818798359E+04    0.96812E-02   -0.93036E-01  9116   0.956E-01    0.242E+00
RMM:   5    -0.254817155522E+04    0.16428E-01   -0.31633E-01  9753   0.389E-01    0.205E+00
RMM:   6    -0.254815263798E+04    0.18917E-01   -0.14168E-01  9099   0.309E-01    0.133E+00
RMM:   7    -0.254815536438E+04   -0.27264E-02   -0.64645E-02  9655   0.195E-01    0.526E-01
RMM:   8    -0.254815512068E+04    0.24370E-03   -0.11709E-02  9699   0.107E-01    0.303E-01
RMM:   9    -0.254815509011E+04    0.30573E-04   -0.63302E-03  9549   0.563E-02    0.192E-01
RMM:  10    -0.254815514833E+04   -0.58220E-04   -0.29601E-03  8781   0.495E-02    0.119E-01
RMM:  11    -0.254815523126E+04   -0.82934E-04   -0.10036E-03  5654   0.310E-02    0.672E-02
RMM:  12    -0.254815525984E+04   -0.28577E-04   -0.37103E-04  4445   0.317E-02
  69 F= -.25481553E+04 E0= -.25481301E+04  d E =-.108795E+01  mag=   254.0000
       N       E                     dE             d eps       ncg     rms          rms(c)
DAV:   1    -0.254464044405E+04    0.35148E+01   -0.82335E+02  6080   0.253E+01    0.885E+00
RMM:   2    -0.254786138596E+04   -0.32209E+01   -0.31248E+01  7224   0.102E+01    0.676E+00
RMM:   3    -0.254902614080E+04   -0.11648E+01   -0.10352E+01  8514   0.327E+00    0.274E+00
RMM:   4    -0.254903831983E+04   -0.12179E-01   -0.11365E+00  9134   0.995E-01    0.247E+00
RMM:   5    -0.254903024673E+04    0.80731E-02   -0.35183E-01 10299   0.346E-01    0.186E+00
RMM:   6    -0.254900093451E+04    0.29312E-01   -0.15307E-01  8889   0.345E-01    0.121E+00
RMM:   7    -0.254900312489E+04   -0.21904E-02   -0.93625E-02  9217   0.222E-01    0.512E-01
RMM:   8    -0.254900334717E+04   -0.22228E-03   -0.16453E-02  9654   0.130E-01    0.331E-01
RMM:   9    -0.254900330069E+04    0.46486E-04   -0.84722E-03  9098   0.592E-02    0.216E-01
RMM:  10    -0.254900315922E+04    0.14147E-03   -0.36942E-03  8776   0.563E-02    0.118E-01
RMM:  11    -0.254900333325E+04   -0.17403E-03   -0.21140E-03  6855   0.352E-02    0.622E-02
RMM:  12    -0.254900337937E+04   -0.46117E-04   -0.56176E-04  4774   0.372E-02
  70 F= -.25490034E+04 E0= -.25489787E+04  d E =-.848120E+00  mag=   254.0000
       N       E                     dE             d eps       ncg     rms          rms(c)
DAV:   1    -0.254467052072E+04    0.43328E+01   -0.89748E+02  6080   0.264E+01    0.929E+00
RMM:   2    -0.254818747092E+04   -0.35170E+01   -0.34142E+01  7200   0.107E+01    0.704E+00
RMM:   3    -0.254947486624E+04   -0.12874E+01   -0.11458E+01  8498   0.344E+00    0.290E+00
RMM:   4    -0.254948669596E+04   -0.11830E-01   -0.12624E+00  9156   0.104E+00    0.261E+00
RMM:   5    -0.254947685392E+04    0.98420E-02   -0.39062E-01 10304   0.366E-01    0.197E+00
RMM:   6    -0.254944439747E+04    0.32456E-01   -0.17442E-01  8898   0.368E-01    0.126E+00
RMM:   7    -0.254944725382E+04   -0.28564E-02   -0.10605E-01  9256   0.236E-01    0.550E-01
RMM:   8    -0.254944722372E+04    0.30104E-04   -0.17736E-02  9653   0.137E-01    0.343E-01
RMM:   9    -0.254944725227E+04   -0.28549E-04   -0.98301E-03  9405   0.623E-02    0.214E-01
RMM:  10    -0.254944714843E+04    0.10384E-03   -0.42349E-03  9062   0.607E-02    0.130E-01
RMM:  11    -0.254944735080E+04   -0.20237E-03   -0.24020E-03  6762   0.355E-02    0.657E-02
RMM:  12    -0.254944740609E+04   -0.55288E-04   -0.65202E-04  4916   0.394E-02
  71 F= -.25494474E+04 E0= -.25494226E+04  d E =-.129215E+01  mag=   254.0000
       N       E                     dE             d eps       ncg     rms          rms(c)
DAV:   1    -0.254599514959E+04    0.34522E+01   -0.87256E+02  6880   0.266E+01    0.890E+00
RMM:   2    -0.254934561834E+04   -0.33505E+01   -0.37637E+01  7843   0.106E+01    0.528E+00
RMM:   3    -0.255043552195E+04   -0.10899E+01   -0.99623E+00  8661   0.309E+00    0.269E+00
RMM:   4    -0.255043161541E+04    0.39065E-02   -0.11778E+00  8978   0.101E+00    0.218E+00
RMM:   5    -0.255040864274E+04    0.22973E-01   -0.36539E-01  9670   0.421E-01    0.149E+00
RMM:   6    -0.255039072808E+04    0.17915E-01   -0.17758E-01  9248   0.367E-01    0.964E-01
RMM:   7    -0.255039599541E+04   -0.52673E-02   -0.92421E-02  9597   0.217E-01    0.578E-01
RMM:   8    -0.255039625870E+04   -0.26329E-03   -0.17791E-02 10088   0.114E-01    0.352E-01
RMM:   9    -0.255039615885E+04    0.99842E-04   -0.11831E-02  9625   0.798E-02    0.269E-01
RMM:  10    -0.255039637011E+04   -0.21125E-03   -0.46262E-03  8826   0.552E-02    0.135E-01
RMM:  11    -0.255039670016E+04   -0.33006E-03   -0.25718E-03  7353   0.419E-02    0.936E-02
RMM:  12    -0.255039680861E+04   -0.10844E-03   -0.89400E-04  5238   0.381E-02    0.518E-02
RMM:  13    -0.255039686893E+04   -0.60321E-04   -0.78615E-04  4674   0.340E-02
  72 F= -.25503969E+04 E0= -.25503730E+04  d E =-.949463E+00  mag=   254.0000
[...]
RMM:   4    -0.255304069214E+04    0.25351E-04   -0.46442E-03  8102   0.616E-02    0.171E-01
RMM:   5    -0.255304054527E+04    0.14687E-03   -0.12795E-03  6224   0.360E-02    0.132E-01
RMM:   6    -0.255304048587E+04    0.59396E-04   -0.70303E-04  5462   0.321E-02
 108 F= -.25530405E+04 E0= -.25530185E+04  d E =-.718355E-02  mag=   254.0000
       N       E                     dE             d eps       ncg     rms          rms(c)
DAV:   1    -0.255292759990E+04    0.11295E+00   -0.18200E+01  6880   0.387E+00    0.186E+00
RMM:   2    -0.255301501249E+04   -0.87413E-01   -0.83127E-01  7863   0.159E+00    0.151E+00
RMM:   3    -0.255304297657E+04   -0.27964E-01   -0.21814E-01  8725   0.453E-01    0.537E-01
RMM:   4    -0.255304317057E+04   -0.19400E-03   -0.27901E-02  9394   0.147E-01    0.406E-01
RMM:   5    -0.255304254340E+04    0.62717E-03   -0.82080E-03  9099   0.683E-02    0.318E-01
RMM:   6    -0.255304224181E+04    0.30159E-03   -0.36098E-03  8580   0.532E-02    0.151E-01
RMM:   7    -0.255304232673E+04   -0.84920E-04   -0.15627E-03  7081   0.406E-02    0.982E-02
RMM:   8    -0.255304233039E+04   -0.36574E-05   -0.33518E-04  4333   0.277E-02
 109 F= -.25530423E+04 E0= -.25530202E+04  d E =-.902806E-02  mag=   254.0000
       N       E                     dE             d eps       ncg     rms          rms(c)
DAV:   1    -0.255302920950E+04    0.13117E-01   -0.25144E+00  7440   0.144E+00    0.664E-01
RMM:   2    -0.255304092475E+04   -0.11715E-01   -0.11204E-01  7903   0.582E-01    0.525E-01
RMM:   3    -0.255304437718E+04   -0.34524E-02   -0.26766E-02  8411   0.163E-01    0.191E-01
RMM:   4    -0.255304436637E+04    0.10808E-04   -0.31014E-03  7539   0.557E-02    0.145E-01
RMM:   5    -0.255304422189E+04    0.14449E-03   -0.57288E-04  4952   0.298E-02    0.126E-01
RMM:   6    -0.255304416706E+04    0.54827E-04   -0.32245E-04  4188   0.293E-02
 110 F= -.25530442E+04 E0= -.25530221E+04  d E =-.108647E-01  mag=   254.0000
       N       E                     dE             d eps       ncg     rms          rms(c)
DAV:   1    -0.255305317981E+04   -0.89579E-02   -0.36824E+00  8640   0.211E+00    0.198E+00
RMM:   2    -0.255304162440E+04    0.11555E-01   -0.29373E-01  7869   0.958E-01    0.146E+00
RMM:   3    -0.255305048269E+04   -0.88583E-02   -0.99047E-02  8579   0.310E-01    0.574E-01
RMM:   4    -0.255304942753E+04    0.10552E-02   -0.14345E-02  8519   0.147E-01    0.456E-01
RMM:   5    -0.255304911736E+04    0.31017E-03   -0.39639E-03  8423   0.580E-02    0.288E-01
RMM:   6    -0.255304908591E+04    0.31442E-04   -0.20325E-03  7123   0.631E-02    0.179E-01
RMM:   7    -0.255304913662E+04   -0.50703E-04   -0.45334E-04  4607   0.341E-02
 111 F= -.25530491E+04 E0= -.25530271E+04  d E =-.496956E-02  mag=   254.0000
       N       E                     dE             d eps       ncg     rms          rms(c)
DAV:   1    -0.255305099124E+04   -0.19053E-02   -0.41258E-01  8960   0.703E-01    0.660E-01
RMM:   2    -0.255304971818E+04    0.12731E-02   -0.33422E-02  7781   0.335E-01    0.493E-01
RMM:   3    -0.255305068444E+04   -0.96626E-03   -0.11215E-02  8353   0.107E-01    0.199E-01
RMM:   4    -0.255305048212E+04    0.20232E-03   -0.14719E-03  6579   0.543E-02    0.153E-01
RMM:   5    -0.255305038333E+04    0.98787E-04   -0.34963E-04  4391   0.300E-02
 112 F= -.25530504E+04 E0= -.25530283E+04  d E =-.621627E-02  mag=   254.0000
       N       E                     dE             d eps       ncg     rms          rms(c)
DAV:   1    -0.255304306289E+04    0.74192E-02   -0.16915E+00  8000   0.127E+00    0.935E-01
RMM:   2    -0.255305068280E+04   -0.76199E-02   -0.94761E-02  7393   0.604E-01    0.923E-01
RMM:   3    -0.255305470826E+04   -0.40255E-02   -0.32616E-02  8380   0.193E-01    0.350E-01
RMM:   4    -0.255305480989E+04   -0.10163E-03   -0.43544E-03  8037   0.710E-02    0.256E-01
RMM:   5    -0.255305471779E+04    0.92095E-04   -0.70519E-04  5445   0.361E-02
 113 F= -.25530547E+04 E0= -.25530327E+04  d E =-.433446E-02  mag=   254.0000
       N       E                     dE             d eps       ncg     rms          rms(c)
DAV:   1    -0.255305306591E+04    0.17440E-02   -0.36931E-01  8160   0.591E-01    0.393E-01
RMM:   2    -0.255305448653E+04   -0.14206E-02   -0.20314E-02  7453   0.275E-01    0.422E-01
RMM:   3    -0.255305532928E+04   -0.84275E-03   -0.76253E-03  8378   0.891E-02    0.183E-01
RMM:   4    -0.255305534584E+04   -0.16566E-04   -0.10779E-03  5823   0.378E-02    0.134E-01
RMM:   5    -0.255305530348E+04    0.42363E-04   -0.24940E-04  4050   0.304E-02
 114 F= -.25530553E+04 E0= -.25530333E+04  d E =-.492015E-02  mag=   254.0000
       N       E                     dE             d eps       ncg     rms          rms(c)
DAV:   1    -0.255305289989E+04    0.24460E-02   -0.10384E+00  7680   0.936E-01    0.322E-01
RMM:   2    -0.255305742599E+04   -0.45261E-02   -0.43660E-02  7920   0.353E-01    0.263E-01
RMM:   3    -0.255305857009E+04   -0.11441E-02   -0.10229E-02  8638   0.995E-02    0.120E-01
RMM:   4    -0.255305857860E+04   -0.85099E-05   -0.14427E-03  6440   0.393E-02    0.941E-02
RMM:   5    -0.255305854803E+04    0.30569E-04   -0.33409E-04  4295   0.238E-02
 115 F= -.25530585E+04 E0= -.25530367E+04  d E =-.324455E-02  mag=   254.0000
       N       E                     dE             d eps       ncg     rms          rms(c)
DAV:   1    -0.255301418623E+04    0.44392E-01   -0.93688E+00  7280   0.281E+00    0.860E-01
RMM:   2    -0.255305466055E+04   -0.40474E-01   -0.39065E-01  7945   0.105E+00    0.614E-01
RMM:   3    -0.255306450752E+04   -0.98470E-02   -0.87518E-02  8777   0.291E-01    0.357E-01
RMM:   4    -0.255306473692E+04   -0.22940E-03   -0.12911E-02  8717   0.107E-01    0.285E-01
RMM:   5    -0.255306452397E+04    0.21295E-03   -0.38012E-03  8119   0.529E-02    0.217E-01
RMM:   6    -0.255306443297E+04    0.90997E-04   -0.21786E-03  7567   0.565E-02    0.176E-01
RMM:   7    -0.255306454167E+04   -0.10870E-03   -0.10715E-03  6272   0.391E-02    0.865E-02
RMM:   8    -0.255306456970E+04   -0.28025E-04   -0.25130E-04  4036   0.334E-02
 116 F= -.25530646E+04 E0= -.25530430E+04  d E =-.926622E-02  mag=   254.0000
       N       E                     dE             d eps       ncg     rms          rms(c)
DAV:   1    -0.255285604227E+04    0.20850E+00   -0.37558E+01  7200   0.563E+00    0.169E+00
RMM:   2    -0.255301936060E+04   -0.16332E+00   -0.15829E+00  8002   0.210E+00    0.112E+00
RMM:   3    -0.255305904662E+04   -0.39686E-01   -0.34978E-01  8790   0.577E-01    0.681E-01
RMM:   4    -0.255305990749E+04   -0.86087E-03   -0.48864E-02  9152   0.207E-01    0.584E-01
RMM:   5    -0.255305944938E+04    0.45812E-03   -0.14562E-02  9418   0.874E-02    0.431E-01
RMM:   6    -0.255305865608E+04    0.79330E-03   -0.85470E-03  8797   0.961E-02    0.303E-01
RMM:   7    -0.255305919248E+04   -0.53640E-03   -0.53611E-03  8803   0.624E-02    0.172E-01
RMM:   8    -0.255305918530E+04    0.71765E-05   -0.70930E-04  5492   0.363E-02
 117 F= -.25530592E+04 E0= -.25530380E+04  d E =-.388182E-02  mag=   254.0000
       N       E                     dE             d eps       ncg     rms          rms(c)
DAV:   1    -0.255297836241E+04    0.80830E-01   -0.16382E+01  6960   0.371E+00    0.109E+00
RMM:   2    -0.255304958426E+04   -0.71222E-01   -0.68960E-01  8030   0.139E+00    0.714E-01
RMM:   3    -0.255306590542E+04   -0.16321E-01   -0.14378E-01  8736   0.373E-01    0.437E-01
RMM:   4    -0.255306600804E+04   -0.10262E-03   -0.18901E-02  8851   0.131E-01    0.387E-01
RMM:   5    -0.255306564660E+04    0.36144E-03   -0.50937E-03  8354   0.572E-02    0.279E-01
RMM:   6    -0.255306518044E+04    0.46615E-03   -0.39726E-03  8270   0.691E-02    0.186E-01
RMM:   7    -0.255306538342E+04   -0.20297E-03   -0.19159E-03  7452   0.431E-02    0.967E-02
RMM:   8    -0.255306534421E+04    0.39210E-04   -0.23012E-04  4107   0.333E-02
 118 F= -.25530653E+04 E0= -.25530439E+04  d E =-.100407E-01  mag=   254.0000
       N       E                     dE             d eps       ncg     rms          rms(c)
DAV:   1    -0.255306341097E+04    0.19725E-02   -0.93026E-01  7040   0.865E-01    0.320E-01
RMM:   2    -0.255306703714E+04   -0.36262E-02   -0.41907E-02  7991   0.336E-01    0.309E-01
RMM:   3    -0.255306785859E+04   -0.82145E-03   -0.78223E-03  8226   0.886E-02    0.135E-01
RMM:   4    -0.255306781597E+04    0.42614E-04   -0.65113E-04  5164   0.347E-02
 119 F= -.25530678E+04 E0= -.25530464E+04  d E =-.247177E-02  mag=   254.0000
       N       E                     dE             d eps       ncg     rms          rms(c)
DAV:   1    -0.255305248852E+04    0.15370E-01   -0.39413E+00  7040   0.178E+00    0.648E-01
RMM:   2    -0.255306836580E+04   -0.15877E-01   -0.18338E-01  8060   0.701E-01    0.631E-01
RMM:   3    -0.255307226040E+04   -0.38946E-02   -0.37365E-02  8974   0.182E-01    0.310E-01
RMM:   4    -0.255307211356E+04    0.14683E-03   -0.46107E-03  8318   0.638E-02    0.266E-01
RMM:   5    -0.255307203821E+04    0.75356E-04   -0.15455E-03  6493   0.390E-02    0.198E-01
RMM:   6    -0.255307209245E+04   -0.54237E-04   -0.17736E-03  7188   0.459E-02    0.124E-01
RMM:   7    -0.255307214750E+04   -0.55058E-04   -0.35332E-04  4259   0.327E-02
 120 F= -.25530721E+04 E0= -.25530508E+04  d E =-.680330E-02  mag=   254.0000
       N       E                     dE             d eps       ncg     rms          rms(c)
DAV:   1    -0.255299722496E+04    0.74867E-01   -0.15766E+01  6640   0.356E+00    0.136E+00
RMM:   2    -0.255306266072E+04   -0.65436E-01   -0.75040E-01  8104   0.139E+00    0.129E+00
RMM:   3    -0.255307798252E+04   -0.15322E-01   -0.14299E-01  8987   0.357E-01    0.556E-01
RMM:   4    -0.255307756031E+04    0.42221E-03   -0.17240E-02  9213   0.126E-01    0.476E-01
RMM:   5    -0.255307749695E+04    0.63364E-04   -0.63424E-03  9134   0.579E-02    0.360E-01
RMM:   6    -0.255307736182E+04    0.13513E-03   -0.50405E-03  8403   0.775E-02    0.243E-01
RMM:   7    -0.255307764333E+04   -0.28151E-03   -0.20477E-03  7799   0.419E-02    0.905E-02
RMM:   8    -0.255307751669E+04    0.12664E-03   -0.28032E-04  4159   0.289E-02    0.767E-02
RMM:   9    -0.255307750232E+04    0.14374E-04   -0.25697E-04  4082   0.235E-02
 121 F= -.25530775E+04 E0= -.25530562E+04  d E =-.121581E-01  mag=   254.0000
       N       E                     dE             d eps       ncg     rms          rms(c)
DAV:   1    -0.255306836115E+04    0.91555E-02   -0.34276E+00  7360   0.169E+00    0.811E-01
RMM:   2    -0.255308150388E+04   -0.13143E-01   -0.15693E-01  7619   0.696E-01    0.727E-01
RMM:   3    -0.255308627784E+04   -0.47740E-02   -0.43574E-02  8852   0.206E-01    0.291E-01
RMM:   4    -0.255308618080E+04    0.97048E-04   -0.49814E-03  8171   0.714E-02    0.253E-01
RMM:   5    -0.255308611235E+04    0.68444E-04   -0.14781E-03  6531   0.369E-02    0.194E-01
RMM:   6    -0.255308601475E+04    0.97601E-04   -0.99529E-04  6100   0.400E-02
 122 F= -.25530860E+04 E0= -.25530646E+04  d E =-.851243E-02  mag=   254.0000
       N       E                     dE             d eps       ncg     rms          rms(c)
DAV:   1    -0.255306668575E+04    0.19427E-01   -0.49560E+00  7280   0.203E+00    0.100E+00
RMM:   2    -0.255308555199E+04   -0.18866E-01   -0.22590E-01  7593   0.833E-01    0.901E-01
RMM:   3    -0.255309266191E+04   -0.71099E-02   -0.64368E-02  8824   0.249E-01    0.347E-01
RMM:   4    -0.255309267446E+04   -0.12550E-04   -0.77407E-03  8510   0.887E-02    0.302E-01
RMM:   5    -0.255309264530E+04    0.29157E-04   -0.23499E-03  7331   0.422E-02    0.236E-01
RMM:   6    -0.255309252368E+04    0.12162E-03   -0.13684E-03  6941   0.442E-02    0.140E-01
RMM:   7    -0.255309256063E+04   -0.36953E-04   -0.74638E-04  5666   0.343E-02
 123 F= -.25530926E+04 E0= -.25530711E+04  d E =-.150583E-01  mag=   254.0000
       N       E                     dE             d eps       ncg     rms          rms(c)
DAV:   1    -0.255298848333E+04    0.10404E+00   -0.19965E+01  7200   0.407E+00    0.201E+00
RMM:   2    -0.255306622132E+04   -0.77738E-01   -0.91700E-01  7610   0.168E+00    0.184E+00
RMM:   3    -0.255309398361E+04   -0.27762E-01   -0.25127E-01  8785   0.499E-01    0.716E-01
RMM:   4    -0.255309378156E+04    0.20205E-03   -0.29374E-02  9256   0.171E-01    0.605E-01
RMM:   5    -0.255309353284E+04    0.24872E-03   -0.95546E-03  9329   0.723E-02    0.465E-01
RMM:   6    -0.255309306340E+04    0.46945E-03   -0.55288E-03  8476   0.760E-02    0.254E-01
RMM:   7    -0.255309327970E+04   -0.21631E-03   -0.28114E-03  8664   0.479E-02    0.125E-01
RMM:   8    -0.255309315441E+04    0.12530E-03   -0.31321E-04  4255   0.269E-02    0.783E-02
RMM:   9    -0.255309311645E+04    0.37959E-04   -0.26994E-04  4115   0.256E-02
 124 F= -.25530931E+04 E0= -.25530715E+04  d E =-.156141E-01  mag=   254.0000
       N       E                     dE             d eps       ncg     rms          rms(c)
DAV:   1    -0.255306744781E+04    0.25707E-01   -0.56035E+00  7440   0.215E+00    0.102E+00
RMM:   2    -0.255308804553E+04   -0.20598E-01   -0.25144E-01  7701   0.868E-01    0.899E-01
RMM:   3    -0.255309508345E+04   -0.70379E-02   -0.63952E-02  8605   0.253E-01    0.350E-01
RMM:   4    -0.255309502043E+04    0.63029E-04   -0.70803E-03  8346   0.911E-02    0.304E-01
RMM:   5    -0.255309492606E+04    0.94363E-04   -0.20090E-03  7038   0.422E-02    0.233E-01
RMM:   6    -0.255309481716E+04    0.10890E-03   -0.13019E-03  6667   0.450E-02    0.124E-01
RMM:   7    -0.255309489270E+04   -0.75546E-04   -0.58344E-04  5201   0.332E-02
 125 F= -.25530949E+04 E0= -.25530734E+04  d E =-.173904E-01  mag=   254.0000
       N       E                     dE             d eps       ncg     rms          rms(c)
DAV:   1    -0.255310229674E+04   -0.74796E-02   -0.98752E-01  9120   0.114E+00    0.107E+00
RMM:   2    -0.255309616375E+04    0.61330E-02   -0.75339E-02  8062   0.446E-01    0.566E-01
RMM:   3    -0.255309774121E+04   -0.15775E-02   -0.25976E-02  8298   0.163E-01    0.270E-01
RMM:   4    -0.255309757585E+04    0.16536E-03   -0.38314E-03  7916   0.825E-02    0.177E-01
RMM:   5    -0.255309749255E+04    0.83307E-04   -0.62392E-04  4718   0.394E-02
 126 F= -.25530975E+04 E0= -.25530758E+04  d E =-.259984E-02  mag=   254.0000
       N       E                     dE             d eps       ncg     rms          rms(c)
DAV:   1    -0.255309801560E+04   -0.43975E-03   -0.54816E-02  9680   0.273E-01    0.252E-01
RMM:   2    -0.255309768971E+04    0.32589E-03   -0.41031E-03  8138   0.101E-01    0.145E-01
RMM:   3    -0.255309775662E+04   -0.66906E-04   -0.10389E-03  5923   0.359E-02    0.670E-02
RMM:   4    -0.255309773742E+04    0.19194E-04   -0.21823E-04  3920   0.315E-02
 127 F= -.25530977E+04 E0= -.25530761E+04  d E =-.284472E-02  mag=   254.0000
       N       E                     dE             d eps       ncg     rms          rms(c)
DAV:   1    -0.255309465816E+04    0.30985E-02   -0.45923E-01  7600   0.633E-01    0.525E-01
RMM:   2    -0.255309787650E+04   -0.32183E-02   -0.26296E-02  7456   0.309E-01    0.444E-01
RMM:   3    -0.255309935914E+04   -0.14826E-02   -0.96123E-03  8186   0.998E-02    0.159E-01
RMM:   4    -0.255309936173E+04   -0.25821E-05   -0.94508E-04  5438   0.394E-02
 128 F= -.25530994E+04 E0= -.25530776E+04  d E =-.162430E-02  mag=   254.0000
       N       E                     dE             d eps       ncg     rms          rms(c)
DAV:   1    -0.255309936568E+04   -0.65332E-05   -0.45852E-04  8160   0.396E-02    0.109E-01
RMM:   2    -0.255309933248E+04    0.33194E-04   -0.92275E-05  3703   0.206E-02
 129 F= -.25530993E+04 E0= -.25530776E+04  d E =-.159506E-02  mag=   254.0000
       N       E                     dE             d eps       ncg     rms          rms(c)
DAV:   1    -0.255309855453E+04    0.81115E-03   -0.43160E-01  7680   0.615E-01    0.237E-01
RMM:   2    -0.255310045635E+04   -0.19018E-02   -0.19471E-02  7988   0.240E-01    0.216E-01
RMM:   3    -0.255310094284E+04   -0.48649E-03   -0.43113E-03  8104   0.679E-02    0.115E-01
RMM:   4    -0.255310091112E+04    0.31722E-04   -0.37287E-04  4210   0.324E-02
 130 F= -.25531009E+04 E0= -.25530790E+04  d E =-.157864E-02  mag=   254.0000
       N       E                     dE             d eps       ncg     rms          rms(c)
DAV:   1    -0.255309814991E+04    0.27929E-02   -0.77521E-01  7520   0.824E-01    0.318E-01
RMM:   2    -0.255310158666E+04   -0.34367E-02   -0.34835E-02  7993   0.321E-01    0.275E-01
RMM:   3    -0.255310249056E+04   -0.90391E-03   -0.81593E-03  8571   0.907E-02    0.162E-01
RMM:   4    -0.255310243683E+04    0.53733E-04   -0.88441E-04  5420   0.388E-02
 131 F= -.25531024E+04 E0= -.25530804E+04  d E =-.310435E-02  mag=   254.0000
       N       E                     dE             d eps       ncg     rms          rms(c)
DAV:   1    -0.255310195247E+04    0.53809E-03   -0.27309E-01  8560   0.520E-01    0.396E-01
RMM:   2    -0.255310280219E+04   -0.84972E-03   -0.14657E-02  7474   0.228E-01    0.381E-01
RMM:   3    -0.255310325612E+04   -0.45393E-03   -0.44827E-03  7922   0.704E-02    0.170E-01
RMM:   4    -0.255310323519E+04    0.20930E-04   -0.41339E-04  4470   0.356E-02
 132 F= -.25531032E+04 E0= -.25530811E+04  d E =-.798357E-03  mag=   254.0000
       N       E                     dE             d eps       ncg     rms          rms(c)
DAV:   1    -0.255309943747E+04    0.38186E-02   -0.98552E-01  8080   0.982E-01    0.622E-01
RMM:   2    -0.255310247999E+04   -0.30425E-02   -0.52645E-02  7517   0.428E-01    0.660E-01
RMM:   3    -0.255310406288E+04   -0.15829E-02   -0.15646E-02  8487   0.131E-01    0.323E-01
RMM:   4    -0.255310401871E+04    0.44168E-04   -0.19647E-03  7113   0.554E-02    0.272E-01
RMM:   5    -0.255310398921E+04    0.29507E-04   -0.45508E-04  4695   0.313E-02
 133 F= -.25531040E+04 E0= -.25530817E+04  d E =-.155238E-02  mag=   254.0000
       N       E                     dE             d eps       ncg     rms          rms(c)
DAV:   1    -0.255310267828E+04    0.13404E-02   -0.33573E-01  8160   0.598E-01    0.694E-01
RMM:   2    -0.255310442896E+04   -0.17507E-02   -0.27912E-02  7034   0.341E-01    0.777E-01
RMM:   3    -0.255310567437E+04   -0.12454E-02   -0.10212E-02  8231   0.111E-01    0.281E-01
RMM:   4    -0.255310571287E+04   -0.38507E-04   -0.14055E-03  6505   0.434E-02    0.163E-01
RMM:   5    -0.255310568198E+04    0.30890E-04   -0.30269E-04  4188   0.345E-02
 134 F= -.25531057E+04 E0= -.25530833E+04  d E =-.169278E-02  mag=   254.0000
       N       E                     dE             d eps       ncg     rms          rms(c)
DAV:   1    -0.255310575284E+04   -0.39965E-04   -0.49968E-03 10560   0.831E-02    0.115E-01
RMM:   2    -0.255310574374E+04    0.90972E-05   -0.24918E-04  4001   0.342E-02
 135 F= -.25531057E+04 E0= -.25530834E+04  d E =-.175453E-02  mag=   254.0000
       N       E                     dE             d eps       ncg     rms          rms(c)
DAV:   1    -0.255310661242E+04   -0.85958E-03   -0.18611E-01  8160   0.485E-01    0.464E-01
RMM:   2    -0.255310629567E+04    0.31675E-03   -0.13647E-02  7291   0.237E-01    0.528E-01
RMM:   3    -0.255310659730E+04   -0.30163E-03   -0.39573E-03  7829   0.729E-02    0.241E-01
RMM:   4    -0.255310651162E+04    0.85671E-04   -0.42575E-04  4268   0.400E-02
 136 F= -.25531065E+04 E0= -.25530842E+04  d E =-.767882E-03  mag=   254.0000
       N       E                     dE             d eps       ncg     rms          rms(c)
DAV:   1    -0.255310685856E+04   -0.26127E-03   -0.20590E-01  8400   0.513E-01    0.485E-01
RMM:   2    -0.255310641082E+04    0.44774E-03   -0.15580E-02  7330   0.246E-01    0.587E-01
RMM:   3    -0.255310673873E+04   -0.32791E-03   -0.45346E-03  7878   0.756E-02    0.291E-01
RMM:   4    -0.255310661959E+04    0.11914E-03   -0.54228E-04  4768   0.413E-02    0.188E-01
RMM:   5    -0.255310655403E+04    0.65563E-04   -0.44882E-04  4669   0.328E-02
 137 F= -.25531066E+04 E0= -.25530844E+04  d E =-.810290E-03  mag=   254.0000
