       N       E                     dE             d eps       ncg     rms          rms(c)
DAV:   1     0.387496270148E+03    0.38750E+03   -0.16540E+04  2064   0.256E+03
DAV:   2     0.626106477741E+02   -0.32489E+03   -0.29872E+03  2096   0.411E+02
DAV:   3    -0.381301897039E+02   -0.10074E+03   -0.97992E+02  2960   0.209E+02
DAV:   4    -0.502295213959E+02   -0.12099E+02   -0.12031E+02  3448   0.632E+01
DAV:   5    -0.508987322221E+02   -0.66921E+00   -0.66894E+00  3000   0.154E+01    0.262E+01
RMM:   6    -0.452633392971E+02    0.56354E+01   -0.15495E+02  2934   0.993E+01    0.596E+01
RMM:   7    -0.406558024440E+02    0.46075E+01   -0.24969E+01  2238   0.607E+01    0.171E+01
RMM:   8    -0.418327929247E+02   -0.11770E+01   -0.19848E+01  2603   0.281E+01    0.513E+00
RMM:   9    -0.420129222960E+02   -0.18013E+00   -0.30886E+00  2794   0.968E+00    0.351E+00
RMM:  10    -0.421030999589E+02   -0.90178E-01   -0.11276E+00  2860   0.513E+00    0.162E+00
RMM:  11    -0.421425617405E+02   -0.39462E-01   -0.47671E-01  2842   0.325E+00    0.810E-01
RMM:  12    -0.421628329603E+02   -0.20271E-01   -0.20668E-01  2961   0.147E+00    0.344E-01
RMM:  13    -0.421780495682E+02   -0.15217E-01   -0.13251E-01  2830   0.102E+00    0.212E-01
RMM:  14    -0.421936158737E+02   -0.15566E-01   -0.15355E-01  2439   0.653E-01    0.116E-01
RMM:  15    -0.422014030822E+02   -0.77872E-02   -0.81749E-02  2014   0.467E-01    0.794E-02
RMM:  16    -0.422097757509E+02   -0.83727E-02   -0.82877E-02  1612   0.306E-01    0.808E-02
RMM:  17    -0.422162458733E+02   -0.64701E-02   -0.62355E-02  1476   0.272E-01    0.106E-01
RMM:  18    -0.422171389278E+02   -0.89305E-03   -0.17195E-02  1428   0.256E-01    0.133E-01
RMM:  19    -0.422178309006E+02   -0.69197E-03   -0.80084E-03  1402   0.208E-01    0.125E-01
RMM:  20    -0.422186105012E+02   -0.77960E-03   -0.10153E-02  1420   0.251E-01    0.146E-01
RMM:  21    -0.422197583925E+02   -0.11479E-02   -0.13239E-02  1433   0.262E-01    0.140E-01
RMM:  22    -0.422210592558E+02   -0.13009E-02   -0.12063E-02  1360   0.236E-01    0.163E-01
RMM:  23    -0.422224331706E+02   -0.13739E-02   -0.15040E-02  1342   0.223E-01    0.169E-01
RMM:  24    -0.422235136920E+02   -0.10805E-02   -0.11998E-02  1315   0.205E-01    0.185E-01
RMM:  25    -0.422257271547E+02   -0.22135E-02   -0.19613E-02  1311   0.200E-01    0.204E-01
RMM:  26    -0.422281331976E+02   -0.24060E-02   -0.24549E-02  1277   0.179E-01    0.239E-01
RMM:  27    -0.422313212694E+02   -0.31881E-02   -0.33743E-02  1278   0.185E-01    0.283E-01
RMM:  28    -0.422356285394E+02   -0.43073E-02   -0.43166E-02  1263   0.182E-01    0.335E-01
RMM:  29    -0.422409079116E+02   -0.52794E-02   -0.50354E-02  1244   0.168E-01    0.402E-01
RMM:  30    -0.422450452225E+02   -0.41373E-02   -0.45754E-02  1235   0.147E-01    0.440E-01
RMM:  31    -0.422471663920E+02   -0.21212E-02   -0.28573E-02  1262   0.178E-01    0.442E-01
RMM:  32    -0.422482558830E+02   -0.10895E-02   -0.13608E-02  1260   0.159E-01    0.453E-01
RMM:  33    -0.422498142399E+02   -0.15584E-02   -0.15805E-02  1233   0.130E-01    0.480E-01
RMM:  34    -0.422518520572E+02   -0.20378E-02   -0.20792E-02  1221   0.116E-01    0.520E-01
RMM:  35    -0.422541272644E+02   -0.22752E-02   -0.23459E-02  1195   0.109E-01    0.559E-01
RMM:  36    -0.422569374627E+02   -0.28102E-02   -0.29243E-02  1192   0.105E-01    0.602E-01
RMM:  37    -0.422582456929E+02   -0.13082E-02   -0.14704E-02  1189   0.102E-01    0.603E-01
RMM:  38    -0.422586172107E+02   -0.37152E-03   -0.47719E-03  1149   0.856E-02    0.615E-01
RMM:  39    -0.422586714042E+02   -0.54193E-04   -0.58156E-04  1140   0.870E-02
   1 F= -.42258671E+02 E0= -.42258671E+02  d E =-.422587E+02  mag=     3.0000
       N       E                     dE             d eps       ncg     rms          rms(c)
DAV:   1    -0.533832637134E+02   -0.11125E+02   -0.37666E+02  2488   0.199E+02    0.307E+01
RMM:   2    -0.433813050128E+02    0.10002E+02   -0.27266E+01  2600   0.598E+01    0.139E+01
RMM:   3    -0.422088723248E+02    0.11724E+01   -0.15922E+01  2573   0.369E+01    0.790E+00
RMM:   4    -0.423095718327E+02   -0.10070E+00   -0.16697E+00  2477   0.173E+01    0.243E+00
RMM:   5    -0.422239044623E+02    0.85667E-01   -0.70889E-01  2559   0.873E+00    0.135E+00
RMM:   6    -0.422403334069E+02   -0.16429E-01   -0.16523E-01  2824   0.281E+00    0.766E-01
RMM:   7    -0.422379967683E+02    0.23366E-02   -0.53589E-02  2694   0.199E+00    0.458E-01
RMM:   8    -0.422409081825E+02   -0.29114E-02   -0.19115E-02  2851   0.104E+00    0.329E-01
RMM:   9    -0.422411543597E+02   -0.24618E-03   -0.76520E-03  2678   0.730E-01    0.131E-01
RMM:  10    -0.422414604149E+02   -0.30606E-03   -0.19300E-03  1949   0.400E-01    0.695E-02
RMM:  11    -0.422415066134E+02   -0.46198E-04   -0.12887E-03  1828   0.397E-01    0.447E-02
RMM:  12    -0.422416093413E+02   -0.10273E-03   -0.12207E-03  1872   0.276E-01    0.352E-02
RMM:  13    -0.422416068960E+02    0.24453E-05   -0.31449E-04  1345   0.252E-01
   2 F= -.42241607E+02 E0= -.42241607E+02  d E =0.170645E-01  mag=     3.0000
       N       E                     dE             d eps       ncg     rms          rms(c)
DAV:   1    -0.451396483963E+02   -0.28980E+01   -0.81920E+01  2416   0.944E+01    0.135E+01
RMM:   2    -0.431346594258E+02    0.20050E+01   -0.63274E+00  2596   0.247E+01    0.639E+00
RMM:   3    -0.428341344412E+02    0.30052E+00   -0.27042E+00  2407   0.188E+01    0.453E+00
RMM:   4    -0.428728465872E+02   -0.38712E-01   -0.81673E-01  2572   0.100E+01    0.271E+00
RMM:   5    -0.428692127559E+02    0.36338E-02   -0.12205E-01  2740   0.301E+00    0.113E+00
RMM:   6    -0.428671240725E+02    0.20887E-02   -0.19694E-01  2612   0.346E+00    0.696E-01
RMM:   7    -0.428606265689E+02    0.64975E-02   -0.13837E-02  2418   0.149E+00    0.383E-01
RMM:   8    -0.428597167427E+02    0.90983E-03   -0.74435E-03  2501   0.662E-01    0.223E-01
RMM:   9    -0.428595367528E+02    0.17999E-03   -0.90197E-03  2504   0.719E-01    0.103E-01
RMM:  10    -0.428598039559E+02   -0.26720E-03   -0.22592E-03  2042   0.383E-01    0.101E-01
RMM:  11    -0.428597043105E+02    0.99645E-04   -0.27485E-04  1308   0.260E-01
   3 F= -.42859704E+02 E0= -.42859704E+02  d E =-.601033E+00  mag=     3.0000
       N       E                     dE             d eps       ncg     rms          rms(c)
DAV:   1    -0.428657246210E+02   -0.59207E-02   -0.15614E-01  2840   0.408E+00    0.672E-01
RMM:   2    -0.428606091859E+02    0.51154E-02   -0.19131E-02  2594   0.115E+00    0.305E-01
RMM:   3    -0.428599532661E+02    0.65592E-03   -0.53210E-03  2197   0.970E-01    0.290E-01
RMM:   4    -0.428599647907E+02   -0.11525E-04   -0.17975E-03  2063   0.506E-01    0.107E-01
RMM:   5    -0.428599604740E+02    0.43166E-05   -0.34801E-04  1378   0.283E-01
   4 F= -.42859960E+02 E0= -.42859960E+02  d E =-.601289E+00  mag=     3.0000
