       N       E                     dE             d eps       ncg     rms          rms(c)
DAV:   1     0.402523451063E+05    0.40252E+05   -0.86010E+05  6800   0.262E+03
DAV:   2     0.145850580219E+05   -0.25667E+05   -0.22932E+05  6640   0.690E+02
DAV:   3     0.353836432463E+04   -0.11047E+05   -0.99217E+04  6960   0.356E+02
DAV:   4    -0.162538865847E+04   -0.51638E+04   -0.48051E+04  9600   0.201E+02
DAV:   5    -0.282846310029E+04   -0.12031E+04   -0.11696E+04 11360   0.106E+02    0.217E+02
RMM:   6    -0.250426045165E+04    0.32420E+03   -0.76861E+03  8829   0.109E+02    0.341E+02
RMM:   7    -0.257686530182E+04   -0.72605E+02   -0.18661E+03  9417   0.352E+01    0.192E+02
RMM:   8    -0.246335524921E+04    0.11351E+03   -0.12769E+03  7423   0.556E+01    0.994E+01
RMM:   9    -0.254599155049E+04   -0.82636E+02   -0.79999E+02  8734   0.189E+01    0.714E+01
RMM:  10    -0.254434621623E+04    0.16453E+01   -0.18568E+02  8387   0.139E+01    0.378E+01
RMM:  11    -0.253745161496E+04    0.68946E+01   -0.11006E+02  9018   0.889E+00    0.223E+01
RMM:  12    -0.253782755446E+04   -0.37594E+00   -0.42962E+01  9705   0.460E+00    0.192E+01
RMM:  13    -0.253795803390E+04   -0.13048E+00   -0.10421E+01 10191   0.166E+00    0.182E+01
RMM:  14    -0.253791502229E+04    0.43012E-01   -0.67596E+00  8581   0.223E+00    0.172E+01
RMM:  15    -0.253830891364E+04   -0.39389E+00   -0.67947E+00  8986   0.222E+00    0.148E+01
RMM:  16    -0.253707793875E+04    0.12310E+01   -0.22010E+00  8628   0.140E+00    0.114E+01
RMM:  17    -0.253682229000E+04    0.25565E+00   -0.13682E+00  9168   0.839E-01    0.962E+00
RMM:  18    -0.253650577613E+04    0.31651E+00   -0.21805E+00  9049   0.123E+00    0.567E+00
RMM:  19    -0.253652623919E+04   -0.20463E-01   -0.89925E-01  9460   0.747E-01    0.388E+00
RMM:  20    -0.253653518735E+04   -0.89482E-02   -0.24874E-01  8920   0.483E-01    0.273E+00
RMM:  21    -0.253654526821E+04   -0.10081E-01   -0.94080E-02  8994   0.197E-01    0.226E+00
RMM:  22    -0.253655256272E+04   -0.72945E-02   -0.60559E-02  8353   0.245E-01    0.149E+00
RMM:  23    -0.253654835876E+04    0.42040E-02   -0.36616E-02  7537   0.160E-01    0.797E-01
RMM:  24    -0.253654871990E+04   -0.36114E-03   -0.26283E-02  7761   0.119E-01    0.441E-01
RMM:  25    -0.253654953001E+04   -0.81011E-03   -0.16773E-02  7590   0.935E-02    0.210E-01
RMM:  26    -0.253655048538E+04   -0.95537E-03   -0.11211E-02  6878   0.629E-02    0.137E-01
RMM:  27    -0.253655116750E+04   -0.68213E-03   -0.76261E-03  4865   0.452E-02    0.133E-01
RMM:  28    -0.253655167293E+04   -0.50543E-03   -0.55553E-03  4785   0.393E-02    0.811E-02
RMM:  29    -0.253655207333E+04   -0.40040E-03   -0.41803E-03  4629   0.385E-02    0.688E-02
RMM:  30    -0.253655235228E+04   -0.27895E-03   -0.28022E-03  4498   0.342E-02    0.444E-02
RMM:  31    -0.253655256941E+04   -0.21713E-03   -0.21884E-03  4294   0.311E-02    0.309E-02
RMM:  32    -0.253655273043E+04   -0.16103E-03   -0.16616E-03  4298   0.263E-02    0.138E-02
RMM:  33    -0.253655285751E+04   -0.12708E-03   -0.12802E-03  4266   0.220E-02    0.137E-02
RMM:  34    -0.253655295441E+04   -0.96896E-04   -0.97763E-04  4233   0.210E-02
   1 F= -.25365530E+04 E0= -.25364993E+04  d E =-.253655E+04  mag=   255.0002
       N       E                     dE             d eps       ncg     rms          rms(c)
DAV:   1    -0.253604153653E+04    0.51132E+00   -0.54935E+01  6800   0.585E+00    0.561E+00
RMM:   2    -0.253654332739E+04   -0.50179E+00   -0.26776E+00  7646   0.268E+00    0.441E+00
RMM:   3    -0.253670434323E+04   -0.16102E+00   -0.91549E-01  8683   0.861E-01    0.179E+00
RMM:   4    -0.253670809675E+04   -0.37535E-02   -0.11695E-01  9413   0.331E-01    0.124E+00
RMM:   5    -0.253670446733E+04    0.36294E-02   -0.32104E-02  9518   0.126E-01    0.824E-01
RMM:   6    -0.253670014600E+04    0.43213E-02   -0.19063E-02  8720   0.109E-01    0.482E-01
RMM:   7    -0.253670001134E+04    0.13466E-03   -0.12731E-02  8674   0.112E-01    0.461E-01
RMM:   8    -0.253670024118E+04   -0.22983E-03   -0.35521E-03  7754   0.536E-02    0.212E-01
RMM:   9    -0.253670015294E+04    0.88235E-04   -0.76206E-04  4988   0.385E-02
   2 F= -.25367002E+04 E0= -.25366468E+04  d E =-.147199E+00  mag=   255.0000
       N       E                     dE             d eps       ncg     rms          rms(c)
DAV:   1    -0.253669316806E+04    0.70731E-02   -0.87688E-01  6960   0.752E-01    0.711E-01
RMM:   2    -0.253670087473E+04   -0.77067E-02   -0.42288E-02  7567   0.348E-01    0.419E-01
RMM:   3    -0.253670340441E+04   -0.25297E-02   -0.13565E-02  8412   0.107E-01    0.172E-01
RMM:   4    -0.253670330693E+04    0.97483E-04   -0.12742E-03  5714   0.428E-02    0.147E-01
RMM:   5    -0.253670322806E+04    0.78870E-04   -0.29045E-04  4087   0.239E-02
   3 F= -.25367032E+04 E0= -.25366498E+04  d E =-.150274E+00  mag=   255.0000
       N       E                     dE             d eps       ncg     rms          rms(c)
DAV:   1    -0.253666885708E+04    0.34450E-01   -0.93788E+00  6880   0.271E+00    0.190E+00
RMM:   2    -0.253671960327E+04   -0.50746E-01   -0.61318E-01  7614   0.130E+00    0.161E+00
RMM:   3    -0.253674209347E+04   -0.22490E-01   -0.18710E-01  8785   0.404E-01    0.625E-01
RMM:   4    -0.253674170394E+04    0.38953E-03   -0.23010E-02  9041   0.151E-01    0.513E-01
RMM:   5    -0.253674106897E+04    0.63497E-03   -0.59366E-03  8749   0.611E-02    0.398E-01
RMM:   6    -0.253674053495E+04    0.53403E-03   -0.34935E-03  7758   0.577E-02    0.198E-01
RMM:   7    -0.253674058260E+04   -0.47657E-04   -0.13301E-03  6480   0.417E-02    0.170E-01
RMM:   8    -0.253674059144E+04   -0.88360E-05   -0.29705E-04  4086   0.285E-02
   4 F= -.25367406E+04 E0= -.25366867E+04  d E =-.373634E-01  mag=   255.0000
       N       E                     dE             d eps       ncg     rms          rms(c)
DAV:   1    -0.253665939419E+04    0.81188E-01   -0.11864E+01  6720   0.306E+00    0.216E+00
RMM:   2    -0.253672465293E+04   -0.65259E-01   -0.78694E-01  7639   0.147E+00    0.180E+00
RMM:   3    -0.253675382193E+04   -0.29169E-01   -0.24108E-01  8843   0.455E-01    0.709E-01
RMM:   4    -0.253675363536E+04    0.18657E-03   -0.30932E-02  9176   0.167E-01    0.593E-01
RMM:   5    -0.253675291370E+04    0.72166E-03   -0.78982E-03  9065   0.676E-02    0.440E-01
RMM:   6    -0.253675228038E+04    0.63331E-03   -0.48667E-03  8098   0.670E-02    0.213E-01
RMM:   7    -0.253675239707E+04   -0.11669E-03   -0.18648E-03  7225   0.443E-02    0.167E-01
RMM:   8    -0.253675239076E+04    0.63064E-05   -0.36810E-04  4214   0.292E-02
   5 F= -.25367524E+04 E0= -.25366983E+04  d E =-.491627E-01  mag=   255.0000
       N       E                     dE             d eps       ncg     rms          rms(c)
DAV:   1    -0.253668956304E+04    0.62834E-01   -0.15128E+01  6960   0.383E+00    0.311E+00
RMM:   2    -0.253673009590E+04   -0.40533E-01   -0.10437E+00  7551   0.183E+00    0.257E+00
RMM:   3    -0.253676709781E+04   -0.37002E-01   -0.33895E-01  8618   0.578E-01    0.101E+00
RMM:   4    -0.253676586882E+04    0.12290E-02   -0.45324E-02  8887   0.241E-01    0.919E-01
RMM:   5    -0.253676504908E+04    0.81974E-03   -0.12762E-02  9749   0.880E-02    0.622E-01
RMM:   6    -0.253676425336E+04    0.79571E-03   -0.99928E-03  8293   0.106E-01    0.350E-01
RMM:   7    -0.253676440901E+04   -0.15565E-03   -0.28857E-03  8049   0.566E-02    0.225E-01
RMM:   8    -0.253676430093E+04    0.10809E-03   -0.48530E-04  4654   0.338E-02    0.120E-01
RMM:   9    -0.253676427147E+04    0.29459E-04   -0.30109E-04  4155   0.294E-02
   6 F= -.25367643E+04 E0= -.25367114E+04  d E =-.118807E-01  mag=   255.0000
       N       E                     dE             d eps       ncg     rms          rms(c)
DAV:   1    -0.253676134450E+04    0.29564E-02   -0.10924E+00  7520   0.103E+00    0.854E-01
RMM:   2    -0.253676373423E+04   -0.23897E-02   -0.73914E-02  7558   0.486E-01    0.705E-01
RMM:   3    -0.253676621000E+04   -0.24758E-02   -0.23307E-02  8520   0.154E-01    0.275E-01
RMM:   4    -0.253676603863E+04    0.17136E-03   -0.29280E-03  7867   0.682E-02    0.251E-01
RMM:   5    -0.253676592079E+04    0.11784E-03   -0.48627E-04  4724   0.299E-02    0.173E-01
RMM:   6    -0.253676580334E+04    0.11745E-03   -0.54586E-04  4797   0.321E-02    0.942E-02
RMM:   7    -0.253676579830E+04    0.50443E-05   -0.29088E-04  4100   0.290E-02
   7 F= -.25367658E+04 E0= -.25367126E+04  d E =-.134075E-01  mag=   255.0000
       N       E                     dE             d eps       ncg     rms          rms(c)
DAV:   1    -0.253675530663E+04    0.10497E-01   -0.36771E+00  7600   0.185E+00    0.729E-01
RMM:   2    -0.253677028681E+04   -0.14980E-01   -0.14400E-01  7805   0.643E-01    0.494E-01
RMM:   3    -0.253677519355E+04   -0.49067E-02   -0.40739E-02  8485   0.193E-01    0.275E-01
RMM:   4    -0.253677506368E+04    0.12988E-03   -0.43804E-03  7497   0.833E-02    0.235E-01
RMM:   5    -0.253677494231E+04    0.12137E-03   -0.12482E-03  6118   0.379E-02    0.184E-01
RMM:   6    -0.253677482113E+04    0.12117E-03   -0.66499E-04  5351   0.355E-02    0.153E-01
RMM:   7    -0.253677482403E+04   -0.28944E-05   -0.40364E-04  4456   0.327E-02
   8 F= -.25367748E+04 E0= -.25367228E+04  d E =-.902573E-02  mag=   255.0000
       N       E                     dE             d eps       ncg     rms          rms(c)
DAV:   1    -0.253670752736E+04    0.67294E-01   -0.12296E+01  7520   0.338E+00    0.137E+00
RMM:   2    -0.253675807574E+04   -0.50548E-01   -0.48624E-01  7816   0.117E+00    0.954E-01
RMM:   3    -0.253677519694E+04   -0.17121E-01   -0.14111E-01  8655   0.353E-01    0.514E-01
RMM:   4    -0.253677483876E+04    0.35818E-03   -0.16022E-02  8471   0.144E-01    0.460E-01
RMM:   5    -0.253677459792E+04    0.24084E-03   -0.47350E-03  8174   0.597E-02    0.352E-01
RMM:   6    -0.253677425589E+04    0.34203E-03   -0.28330E-03  7805   0.577E-02    0.283E-01
RMM:   7    -0.253677429922E+04   -0.43328E-04   -0.12578E-03  6649   0.418E-02    0.179E-01
RMM:   8    -0.253677436704E+04   -0.67823E-04   -0.49170E-04  4777   0.347E-02
   9 F= -.25367744E+04 E0= -.25367254E+04  d E =-.856874E-02  mag=   255.0000
       N       E                     dE             d eps       ncg     rms          rms(c)
DAV:   1    -0.253676866888E+04    0.56303E-02   -0.16623E+00  7680   0.124E+00    0.508E-01
RMM:   2    -0.253677525005E+04   -0.65812E-02   -0.64028E-02  7734   0.430E-01    0.390E-01
RMM:   3    -0.253677734243E+04   -0.20924E-02   -0.17675E-02  8242   0.131E-01    0.207E-01
RMM:   4    -0.253677727286E+04    0.69573E-04   -0.17542E-03  6392   0.578E-02    0.160E-01
RMM:   5    -0.253677717120E+04    0.10166E-03   -0.41241E-04  4289   0.283E-02    0.114E-01
RMM:   6    -0.253677711072E+04    0.60485E-04   -0.41975E-04  4387   0.291E-02
  10 F= -.25367771E+04 E0= -.25367271E+04  d E =-.113124E-01  mag=   255.0000
       N       E                     dE             d eps       ncg     rms          rms(c)
DAV:   1    -0.253674381369E+04    0.33358E-01   -0.49746E+00  7440   0.207E+00    0.139E+00
RMM:   2    -0.253677150670E+04   -0.27693E-01   -0.23705E-01  7623   0.853E-01    0.903E-01
RMM:   3    -0.253678231593E+04   -0.10809E-01   -0.74357E-02  8508   0.272E-01    0.379E-01
RMM:   4    -0.253678213721E+04    0.17872E-03   -0.78800E-03  8091   0.121E-01    0.353E-01
RMM:   5    -0.253678203007E+04    0.10714E-03   -0.24821E-03  7178   0.448E-02    0.240E-01
RMM:   6    -0.253678184454E+04    0.18553E-03   -0.11460E-03  5971   0.528E-02    0.222E-01
RMM:   7    -0.253678185153E+04   -0.69822E-05   -0.49523E-04  4780   0.346E-02
  11 F= -.25367819E+04 E0= -.25367325E+04  d E =-.474081E-02  mag=   255.0000
       N       E                     dE             d eps       ncg     rms          rms(c)
DAV:   1    -0.253677941416E+04    0.24304E-02   -0.48059E-01  7680   0.646E-01    0.425E-01
RMM:   2    -0.253678210788E+04   -0.26937E-02   -0.22496E-02  7606   0.267E-01    0.281E-01
RMM:   3    -0.253678305330E+04   -0.94542E-03   -0.64969E-03  7892   0.839E-02    0.117E-01
RMM:   4    -0.253678300159E+04    0.51710E-04   -0.55002E-04  4486   0.428E-02
  12 F= -.25367830E+04 E0= -.25367335E+04  d E =-.589087E-02  mag=   255.0000
       N       E                     dE             d eps       ncg     rms          rms(c)
DAV:   1    -0.253678010180E+04    0.29515E-02   -0.24190E+00  8080   0.160E+00    0.879E-01
RMM:   2    -0.253678442184E+04   -0.43200E-02   -0.12040E-01  7589   0.633E-01    0.769E-01
RMM:   3    -0.253678790664E+04   -0.34848E-02   -0.37372E-02  8622   0.200E-01    0.343E-01
RMM:   4    -0.253678759331E+04    0.31332E-03   -0.44384E-03  8271   0.817E-02    0.297E-01
RMM:   5    -0.253678744298E+04    0.15033E-03   -0.12522E-03  6605   0.397E-02    0.206E-01
RMM:   6    -0.253678736365E+04    0.79337E-04   -0.72779E-04  5425   0.365E-02
  13 F= -.25367874E+04 E0= -.25367390E+04  d E =-.436206E-02  mag=   255.0000
       N       E                     dE             d eps       ncg     rms          rms(c)
DAV:   1    -0.253678042741E+04    0.70156E-02   -0.24224E+00  8080   0.160E+00    0.917E-01
RMM:   2    -0.253672287697E+04    0.57550E-01    0.30030E+00  7474   0.164E+00    0.817E-01
RMM:   3    -0.253677600969E+04   -0.53133E-01   -0.38329E-01  8145   0.711E-01    0.426E-01
RMM:   4    -0.253678569942E+04   -0.96897E-02   -0.49696E-02  8329   0.276E-01    0.369E-01
RMM:   5    -0.253678743097E+04   -0.17315E-02   -0.13990E-02  7085   0.111E-01    0.242E-01
RMM:   6    -0.253678786571E+04   -0.43475E-03   -0.56462E-03  6514   0.663E-02    0.221E-01
RMM:   7    -0.253678797527E+04   -0.10955E-03   -0.20439E-03  5807   0.445E-02    0.982E-02
RMM:   8    -0.253678799386E+04   -0.18595E-04   -0.51389E-04  4481   0.308E-02
  14 F= -.25367880E+04 E0= -.25367412E+04  d E =-.499227E-02  mag=   255.0007
       N       E                     dE             d eps       ncg     rms          rms(c)
DAV:   1    -0.253678802446E+04   -0.49191E-04   -0.29869E-01  7600   0.539E-01    0.179E-01
RMM:   2    -0.253678908503E+04   -0.10606E-02   -0.11268E-02  7632   0.182E-01    0.131E-01
RMM:   3    -0.253678949727E+04   -0.41224E-03   -0.37795E-03  7676   0.564E-02    0.703E-02
RMM:   4    -0.253678950297E+04   -0.57016E-05   -0.44942E-04  4570   0.323E-02
  15 F= -.25367895E+04 E0= -.25367433E+04  d E =-.150911E-02  mag=   255.0004
       N       E                     dE             d eps       ncg     rms          rms(c)
DAV:   1    -0.253678867786E+04    0.81941E-03   -0.66202E-01  7600   0.797E-01    0.241E-01
RMM:   2    -0.253679088217E+04   -0.22043E-02   -0.23146E-02  7636   0.263E-01    0.179E-01
RMM:   3    -0.253679172234E+04   -0.84017E-03   -0.79504E-03  8350   0.792E-02    0.110E-01
RMM:   4    -0.253679169760E+04    0.24744E-04   -0.96230E-04  5501   0.361E-02
  16 F= -.25367917E+04 E0= -.25367463E+04  d E =-.370374E-02  mag=   255.0002
       N       E                     dE             d eps       ncg     rms          rms(c)
DAV:   1    -0.253679518073E+04   -0.34584E-02   -0.11536E-01  8720   0.390E-01    0.357E-01
RMM:   2    -0.253679444818E+04    0.73255E-03   -0.75755E-03  7745   0.145E-01    0.295E-01
RMM:   3    -0.253679455344E+04   -0.10525E-03   -0.22524E-03  7367   0.478E-02    0.131E-01
RMM:   4    -0.253679448770E+04    0.65741E-04   -0.39647E-04  4474   0.389E-02
  17 F= -.25367945E+04 E0= -.25367496E+04  d E =-.279010E-02  mag=   255.0001
       N       E                     dE             d eps       ncg     rms          rms(c)
DAV:   1    -0.253680481419E+04   -0.10261E-01   -0.10187E+00  8160   0.116E+00    0.101E+00
RMM:   2    -0.253679869353E+04    0.61207E-02   -0.63465E-02  7766   0.422E-01    0.840E-01
RMM:   3    -0.253679959426E+04   -0.90073E-03   -0.18457E-02  8370   0.136E-01    0.357E-01
RMM:   4    -0.253679908049E+04    0.51376E-03   -0.37761E-03  7780   0.876E-02    0.254E-01
RMM:   5    -0.253679904232E+04    0.38173E-04   -0.13711E-03  6632   0.449E-02    0.161E-01
RMM:   6    -0.253679911945E+04   -0.77130E-04   -0.38228E-04  4401   0.334E-02
  18 F= -.25367991E+04 E0= -.25367554E+04  d E =-.742185E-02  mag=   255.0000
       N       E                     dE             d eps       ncg     rms          rms(c)
DAV:   1    -0.253679986156E+04   -0.81924E-03   -0.63556E-02  8000   0.236E-01    0.116E-01
RMM:   2    -0.253680012629E+04   -0.26473E-03   -0.28005E-03  7077   0.940E-02    0.119E-01
RMM:   3    -0.253680020604E+04   -0.79746E-04   -0.65993E-04  4978   0.316E-02
  19 F= -.25368002E+04 E0= -.25367567E+04  d E =-.108659E-02  mag=   255.0000
       N       E                     dE             d eps       ncg     rms          rms(c)
DAV:   1    -0.253680086233E+04   -0.73604E-03   -0.23196E-01  7280   0.445E-01    0.166E-01
RMM:   2    -0.253680180607E+04   -0.94374E-03   -0.95725E-03  7772   0.165E-01    0.143E-01
RMM:   3    -0.253680206801E+04   -0.26193E-03   -0.22855E-03  7363   0.485E-02    0.712E-02
RMM:   4    -0.253680206008E+04    0.79235E-05   -0.27904E-04  4037   0.293E-02
  20 F= -.25368021E+04 E0= -.25367589E+04  d E =-.294063E-02  mag=   255.0000
       N       E                     dE             d eps       ncg     rms          rms(c)
DAV:   1    -0.253680278853E+04   -0.72053E-03   -0.65563E-02  8240   0.255E-01    0.122E-01
RMM:   2    -0.253680294258E+04   -0.15405E-03   -0.27312E-03  6747   0.920E-02    0.117E-01
RMM:   3    -0.253680300386E+04   -0.61279E-04   -0.70799E-04  5201   0.316E-02
  21 F= -.25368030E+04 E0= -.25367601E+04  d E =-.943782E-03  mag=   255.0000
       N       E                     dE             d eps       ncg     rms          rms(c)
DAV:   1    -0.253680350775E+04   -0.56516E-03   -0.59285E-01  7760   0.759E-01    0.308E-01
RMM:   2    -0.253680510844E+04   -0.16007E-02   -0.25426E-02  7758   0.267E-01    0.263E-01
RMM:   3    -0.253680571887E+04   -0.61042E-03   -0.64444E-03  8386   0.792E-02    0.132E-01
RMM:   4    -0.253680563727E+04    0.81595E-04   -0.72792E-04  5492   0.373E-02
  22 F= -.25368056E+04 E0= -.25367634E+04  d E =-.357719E-02  mag=   255.0000
       N       E                     dE             d eps       ncg     rms          rms(c)
DAV:   1    -0.253680182460E+04    0.38943E-02   -0.23551E+00  7680   0.151E+00    0.567E-01
RMM:   2    -0.253680765846E+04   -0.58339E-02   -0.93270E-02  7660   0.519E-01    0.421E-01
RMM:   3    -0.253681010371E+04   -0.24453E-02   -0.27214E-02  8740   0.159E-01    0.221E-01
RMM:   4    -0.253680987947E+04    0.22424E-03   -0.33764E-03  7737   0.679E-02    0.201E-01
RMM:   5    -0.253680979691E+04    0.82565E-04   -0.12548E-03  6353   0.351E-02    0.123E-01
RMM:   6    -0.253680980165E+04   -0.47445E-05   -0.64117E-04  5366   0.325E-02
  23 F= -.25368098E+04 E0= -.25367694E+04  d E =-.774157E-02  mag=   255.0000
       N       E                     dE             d eps       ncg     rms          rms(c)
DAV:   1    -0.253678054688E+04    0.29250E-01   -0.94356E+00  7520   0.303E+00    0.116E+00
RMM:   2    -0.253680520795E+04   -0.24661E-01   -0.37873E-01  7658   0.104E+00    0.841E-01
RMM:   3    -0.253681510203E+04   -0.98941E-02   -0.10601E-01  8779   0.320E-01    0.410E-01
RMM:   4    -0.253681435873E+04    0.74330E-03   -0.12630E-02  8780   0.127E-01    0.378E-01
RMM:   5    -0.253681415306E+04    0.20567E-03   -0.49550E-03  8653   0.559E-02    0.268E-01
RMM:   6    -0.253681408513E+04    0.67933E-04   -0.21368E-03  7648   0.461E-02    0.156E-01
RMM:   7    -0.253681412044E+04   -0.35308E-04   -0.83092E-04  5537   0.322E-02
  24 F= -.25368141E+04 E0= -.25367773E+04  d E =-.120604E-01  mag=   255.0000
       N       E                     dE             d eps       ncg     rms          rms(c)
DAV:   1    -0.253681986030E+04   -0.57752E-02   -0.13093E-01  8800   0.435E-01    0.415E-01
RMM:   2    -0.253681785635E+04    0.20039E-02   -0.10419E-02  8157   0.151E-01    0.194E-01
RMM:   3    -0.253681771781E+04    0.13854E-03   -0.40173E-03  7786   0.717E-02    0.154E-01
RMM:   4    -0.253681772849E+04   -0.10680E-04   -0.41129E-04  4592   0.407E-02
  25 F= -.25368177E+04 E0= -.25367810E+04  d E =-.360806E-02  mag=   255.0000
       N       E                     dE             d eps       ncg     rms          rms(c)
DAV:   1    -0.253683995322E+04   -0.22235E-01   -0.11238E+00  8080   0.128E+00    0.122E+00
RMM:   2    -0.253682361166E+04    0.16342E-01   -0.85208E-02  8107   0.448E-01    0.549E-01
RMM:   3    -0.253682279288E+04    0.81878E-03   -0.35411E-02  8030   0.207E-01    0.399E-01
RMM:   4    -0.253682294863E+04   -0.15574E-03   -0.48080E-03  7613   0.109E-01    0.183E-01
RMM:   5    -0.253682270833E+04    0.24029E-03   -0.91056E-04  5785   0.485E-02    0.148E-01
RMM:   6    -0.253682272278E+04   -0.14449E-04   -0.48406E-04  4674   0.327E-02
  26 F= -.25368227E+04 E0= -.25367859E+04  d E =-.860235E-02  mag=   255.0000
       N       E                     dE             d eps       ncg     rms          rms(c)
DAV:   1    -0.253682372380E+04   -0.10155E-02   -0.11066E-01  7920   0.303E-01    0.100E-01
RMM:   2    -0.253682415567E+04   -0.43187E-03   -0.44514E-03  7431   0.111E-01    0.105E-01
RMM:   3    -0.253682424569E+04   -0.90021E-04   -0.79149E-04  5258   0.337E-02
  27 F= -.25368242E+04 E0= -.25367874E+04  d E =-.152291E-02  mag=   255.0000
       N       E                     dE             d eps       ncg     rms          rms(c)
DAV:   1    -0.253682504626E+04   -0.89059E-03   -0.38977E-01  7120   0.564E-01    0.159E-01
RMM:   2    -0.253682645505E+04   -0.14088E-02   -0.15368E-02  7844   0.206E-01    0.139E-01
RMM:   3    -0.253682683414E+04   -0.37909E-03   -0.36876E-03  8058   0.596E-02    0.782E-02
RMM:   4    -0.253682681746E+04    0.16680E-04   -0.40761E-04  4511   0.280E-02
  28 F= -.25368268E+04 E0= -.25367898E+04  d E =-.409468E-02  mag=   255.0000
       N       E                     dE             d eps       ncg     rms          rms(c)
DAV:   1    -0.253682437090E+04    0.24632E-02   -0.15382E+00  6800   0.112E+00    0.307E-01
RMM:   2    -0.253682977122E+04   -0.54003E-02   -0.58851E-02  7906   0.406E-01    0.247E-01
RMM:   3    -0.253683126725E+04   -0.14960E-02   -0.14552E-02  8754   0.116E-01    0.140E-01
RMM:   4    -0.253683122549E+04    0.41756E-04   -0.18843E-03  6587   0.440E-02    0.114E-01
RMM:   5    -0.253683117354E+04    0.51949E-04   -0.57347E-04  4936   0.257E-02
  29 F= -.25368312E+04 E0= -.25367938E+04  d E =-.845076E-02  mag=   255.0000
       N       E                     dE             d eps       ncg     rms          rms(c)
DAV:   1    -0.253680956065E+04    0.21665E-01   -0.61162E+00  6800   0.223E+00    0.643E-01
RMM:   2    -0.253683098063E+04   -0.21420E-01   -0.23351E-01  7883   0.807E-01    0.522E-01
RMM:   3    -0.253683710966E+04   -0.61290E-02   -0.58822E-02  8905   0.233E-01    0.268E-01
RMM:   4    -0.253683702826E+04    0.81400E-04   -0.76058E-03  8385   0.811E-02    0.216E-01
RMM:   5    -0.253683687622E+04    0.15204E-03   -0.24472E-03  7053   0.404E-02    0.162E-01
RMM:   6    -0.253683677107E+04    0.10516E-03   -0.15086E-03  6889   0.423E-02    0.112E-01
RMM:   7    -0.253683680142E+04   -0.30350E-04   -0.51889E-04  4756   0.323E-02
  30 F= -.25368368E+04 E0= -.25367986E+04  d E =-.140786E-01  mag=   255.0000
       N       E                     dE             d eps       ncg     rms          rms(c)
DAV:   1    -0.253672622368E+04    0.11055E+00   -0.24561E+01  6800   0.447E+00    0.131E+00
RMM:   2    -0.253681381349E+04   -0.87590E-01   -0.94973E-01  7909   0.162E+00    0.106E+00
RMM:   3    -0.253683806514E+04   -0.24252E-01   -0.23044E-01  8919   0.465E-01    0.540E-01
RMM:   4    -0.253683770007E+04    0.36507E-03   -0.28660E-02  9167   0.161E-01    0.443E-01
RMM:   5    -0.253683728778E+04    0.41229E-03   -0.94282E-03  8844   0.658E-02    0.331E-01
RMM:   6    -0.253683667755E+04    0.61023E-03   -0.58004E-03  8528   0.764E-02    0.237E-01
RMM:   7    -0.253683682632E+04   -0.14877E-03   -0.23633E-03  7570   0.409E-02    0.120E-01
RMM:   8    -0.253683683301E+04   -0.66891E-05   -0.51507E-04  4740   0.363E-02
  31 F= -.25368368E+04 E0= -.25367971E+04  d E =-.141102E-01  mag=   255.0000
       N       E                     dE             d eps       ncg     rms          rms(c)
DAV:   1    -0.253682702140E+04    0.98049E-02   -0.27757E+00  6880   0.150E+00    0.411E-01
RMM:   2    -0.253683628923E+04   -0.92678E-02   -0.10109E-01  7826   0.535E-01    0.324E-01
RMM:   3    -0.253683872742E+04   -0.24382E-02   -0.23746E-02  8525   0.156E-01    0.175E-01
RMM:   4    -0.253683868408E+04    0.43339E-04   -0.27213E-03  7124   0.580E-02    0.146E-01
RMM:   5    -0.253683858454E+04    0.99542E-04   -0.60460E-04  4944   0.271E-02
  32 F= -.25368386E+04 E0= -.25367992E+04  d E =-.158618E-01  mag=   255.0000
       N       E                     dE             d eps       ncg     rms          rms(c)
DAV:   1    -0.253683899989E+04   -0.31581E-03   -0.93746E-02  7520   0.275E-01    0.112E-01
RMM:   2    -0.253683937244E+04   -0.37255E-03   -0.38365E-03  7295   0.995E-02    0.947E-02
RMM:   3    -0.253683943049E+04   -0.58053E-04   -0.47265E-04  4343   0.314E-02
  33 F= -.25368394E+04 E0= -.25368001E+04  d E =-.845954E-03  mag=   255.0000
       N       E                     dE             d eps       ncg     rms          rms(c)
DAV:   1    -0.253683967957E+04   -0.30713E-03   -0.40119E-01  6960   0.557E-01    0.131E-01
RMM:   2    -0.253684106093E+04   -0.13814E-02   -0.14224E-02  7608   0.190E-01    0.998E-02
RMM:   3    -0.253684135884E+04   -0.29791E-03   -0.28612E-03  7200   0.543E-02    0.510E-02
RMM:   4    -0.253684135743E+04    0.14115E-05   -0.34611E-04  4384   0.288E-02
  34 F= -.25368414E+04 E0= -.25368020E+04  d E =-.277289E-02  mag=   255.0000
       N       E                     dE             d eps       ncg     rms          rms(c)
DAV:   1    -0.253683853228E+04    0.28266E-02   -0.15850E+00  6480   0.110E+00    0.262E-01
RMM:   2    -0.253684369202E+04   -0.51597E-02   -0.53417E-02  7594   0.383E-01    0.184E-01
RMM:   3    -0.253684521878E+04   -0.15268E-02   -0.14653E-02  8406   0.113E-01    0.969E-02
RMM:   4    -0.253684521438E+04    0.44031E-05   -0.18909E-03  6307   0.393E-02    0.780E-02
RMM:   5    -0.253684518183E+04    0.32548E-04   -0.59194E-04  4963   0.233E-02
  35 F= -.25368452E+04 E0= -.25368057E+04  d E =-.659729E-02  mag=   255.0000
       N       E                     dE             d eps       ncg     rms          rms(c)
DAV:   1    -0.253682568867E+04    0.19526E-01   -0.63002E+00  6320   0.220E+00    0.547E-01
RMM:   2    -0.253684644431E+04   -0.20756E-01   -0.21487E-01  7588   0.766E-01    0.372E-01
RMM:   3    -0.253685268444E+04   -0.62401E-02   -0.58950E-02  8683   0.228E-01    0.185E-01
RMM:   4    -0.253685273314E+04   -0.48699E-04   -0.76697E-03  8074   0.722E-02    0.149E-01
RMM:   5    -0.253685263268E+04    0.10045E-03   -0.23935E-03  6555   0.379E-02    0.110E-01
RMM:   6    -0.253685257952E+04    0.53169E-04   -0.13103E-03  6468   0.358E-02    0.722E-02
RMM:   7    -0.253685261998E+04   -0.40466E-04   -0.55264E-04  4933   0.314E-02
  36 F= -.25368526E+04 E0= -.25368127E+04  d E =-.140354E-01  mag=   255.0000
       N       E                     dE             d eps       ncg     rms          rms(c)
DAV:   1    -0.253675819786E+04    0.94382E-01   -0.25281E+01  6320   0.441E+00    0.110E+00
RMM:   2    -0.253684192435E+04   -0.83726E-01   -0.86615E-01  7591   0.154E+00    0.732E-01
RMM:   3    -0.253686689112E+04   -0.24967E-01   -0.23453E-01  8674   0.458E-01    0.366E-01
RMM:   4    -0.253686703689E+04   -0.14577E-03   -0.29639E-02  9207   0.142E-01    0.299E-01
RMM:   5    -0.253686676769E+04    0.26919E-03   -0.91742E-03  8386   0.589E-02    0.218E-01
RMM:   6    -0.253686636255E+04    0.40515E-03   -0.52481E-03  8386   0.650E-02    0.149E-01
RMM:   7    -0.253686647525E+04   -0.11271E-03   -0.19915E-03  6927   0.402E-02    0.705E-02
RMM:   8    -0.253686653559E+04   -0.60335E-04   -0.62863E-04  4740   0.340E-02
  37 F= -.25368665E+04 E0= -.25368260E+04  d E =-.279511E-01  mag=   255.0000
       N       E                     dE             d eps       ncg     rms          rms(c)
DAV:   1    -0.253645811219E+04    0.40836E+00   -0.10132E+02  6320   0.882E+00    0.221E+00
RMM:   2    -0.253679350385E+04   -0.33539E+00   -0.34819E+00  7589   0.308E+00    0.151E+00
RMM:   3    -0.253689190781E+04   -0.98404E-01   -0.92575E-01  8673   0.913E-01    0.740E-01
RMM:   4    -0.253689174629E+04    0.16153E-03   -0.11461E-01  9373   0.281E-01    0.596E-01
RMM:   5    -0.253689053964E+04    0.12066E-02   -0.36732E-02  9642   0.113E-01    0.432E-01
RMM:   6    -0.253688873677E+04    0.18029E-02   -0.18597E-02  8920   0.117E-01    0.293E-01
RMM:   7    -0.253688919193E+04   -0.45515E-03   -0.87424E-03  9120   0.671E-02    0.150E-01
RMM:   8    -0.253688933104E+04   -0.13912E-03   -0.21189E-03  6479   0.454E-02    0.127E-01
RMM:   9    -0.253688936521E+04   -0.34166E-04   -0.99610E-04  5077   0.315E-02
  38 F= -.25368894E+04 E0= -.25368477E+04  d E =-.507807E-01  mag=   255.0000
       N       E                     dE             d eps       ncg     rms          rms(c)
DAV:   1    -0.253688821484E+04    0.11162E-02   -0.37685E+00  6400   0.168E+00    0.378E-01
RMM:   2    -0.253690034864E+04   -0.12134E-01   -0.12358E-01  7576   0.561E-01    0.228E-01
RMM:   3    -0.253690383766E+04   -0.34890E-02   -0.33382E-02  8575   0.167E-01    0.134E-01
RMM:   4    -0.253690386914E+04   -0.31476E-04   -0.43817E-03  7216   0.575E-02    0.105E-01
RMM:   5    -0.253690388789E+04   -0.18751E-04   -0.16139E-03  5888   0.324E-02    0.802E-02
RMM:   6    -0.253690383570E+04    0.52193E-04   -0.91042E-04  5393   0.325E-02
  39 F= -.25369038E+04 E0= -.25368620E+04  d E =-.144705E-01  mag=   255.0000
       N       E                     dE             d eps       ncg     rms          rms(c)
DAV:   1    -0.253681291314E+04    0.90975E-01   -0.33634E+01  6080   0.501E+00    0.110E+00
RMM:   2    -0.253691904355E+04   -0.10613E+00   -0.10779E+00  7583   0.166E+00    0.701E-01
RMM:   3    -0.253694872576E+04   -0.29682E-01   -0.28230E-01  8646   0.489E-01    0.392E-01
RMM:   4    -0.253694889287E+04   -0.16712E-03   -0.36798E-02  9315   0.146E-01    0.317E-01
RMM:   5    -0.253694850682E+04    0.38605E-03   -0.11797E-02  8713   0.669E-02    0.230E-01
RMM:   6    -0.253694794000E+04    0.56682E-03   -0.83544E-03  8588   0.776E-02    0.142E-01
RMM:   7    -0.253694812063E+04   -0.18063E-03   -0.24131E-03  7233   0.426E-02    0.744E-02
RMM:   8    -0.253694812719E+04   -0.65650E-05   -0.81958E-04  4817   0.316E-02
  40 F= -.25369481E+04 E0= -.25369061E+04  d E =-.587620E-01  mag=   255.0000
       N       E                     dE             d eps       ncg     rms          rms(c)
DAV:   1    -0.253649195397E+04    0.45617E+00   -0.13493E+02  6080   0.100E+01    0.224E+00
RMM:   2    -0.253692336458E+04   -0.43141E+00   -0.43789E+00  7579   0.335E+00    0.146E+00
RMM:   3    -0.253704442141E+04   -0.12106E+00   -0.11505E+00  8630   0.995E-01    0.827E-01
RMM:   4    -0.253704479096E+04   -0.36955E-03   -0.14505E-01  9445   0.291E-01    0.671E-01
RMM:   5    -0.253704280336E+04    0.19876E-02   -0.46871E-02  9696   0.132E-01    0.487E-01
RMM:   6    -0.253704011640E+04    0.26870E-02   -0.31938E-02  8857   0.145E-01    0.305E-01
RMM:   7    -0.253704084992E+04   -0.73351E-03   -0.10309E-02  9313   0.760E-02    0.160E-01
RMM:   8    -0.253704075244E+04    0.97479E-04   -0.29696E-03  6619   0.442E-02    0.134E-01
RMM:   9    -0.253704084577E+04   -0.93331E-04   -0.12635E-03  5401   0.330E-02    0.842E-02
RMM:  10    -0.253704090347E+04   -0.57700E-04   -0.94675E-04  5127   0.286E-02
  41 F= -.25370409E+04 E0= -.25369985E+04  d E =-.151538E+00  mag=   255.0000
       N       E                     dE             d eps       ncg     rms          rms(c)
DAV:   1    -0.253496659275E+04    0.20743E+01   -0.53856E+02  6080   0.201E+01    0.466E+00
RMM:   2    -0.253675032830E+04   -0.17837E+01   -0.18137E+01  7579   0.679E+00    0.309E+00
RMM:   3    -0.253725465507E+04   -0.50433E+00   -0.47876E+00  8615   0.204E+00    0.184E+00
RMM:   4    -0.253725295570E+04    0.16994E-02   -0.58805E-01  9565   0.591E-01    0.152E+00
RMM:   5    -0.253724246441E+04    0.10491E-01   -0.19338E-01  9800   0.266E-01    0.111E+00
RMM:   6    -0.253722913762E+04    0.13327E-01   -0.12209E-01  8918   0.280E-01    0.661E-01
RMM:   7    -0.253723095488E+04   -0.18173E-02   -0.42090E-02  9567   0.154E-01    0.368E-01
RMM:   8    -0.253723092362E+04    0.31264E-04   -0.12073E-02  9091   0.798E-02    0.298E-01
RMM:   9    -0.253723140750E+04   -0.48389E-03   -0.46992E-03  7437   0.489E-02    0.171E-01
RMM:  10    -0.253723153922E+04   -0.13172E-03   -0.24256E-03  6132   0.421E-02    0.135E-01
RMM:  11    -0.253723165457E+04   -0.11535E-03   -0.12596E-03  5210   0.356E-02    0.845E-02
RMM:  12    -0.253723170634E+04   -0.51771E-04   -0.11141E-03  4814   0.336E-02    0.463E-02
RMM:  13    -0.253723175256E+04   -0.46225E-04   -0.59091E-04  4724   0.312E-02
  42 F= -.25372318E+04 E0= -.25371887E+04  d E =-.342387E+00  mag=   255.0000
       N       E                     dE             d eps       ncg     rms          rms(c)
DAV:   1    -0.252755033709E+04    0.96814E+01   -0.21357E+03  6080   0.401E+01    0.107E+01
RMM:   2    -0.253562870405E+04   -0.80784E+01   -0.83368E+01  7728   0.141E+01    0.721E+00
RMM:   3    -0.253773623442E+04   -0.21075E+01   -0.20109E+01  8621   0.421E+00    0.464E+00
RMM:   4    -0.253767351549E+04    0.62719E-01   -0.24397E+00  9302   0.134E+00    0.405E+00
RMM:   5    -0.253762052121E+04    0.52994E-01   -0.87555E-01  9795   0.571E-01    0.305E+00
RMM:   6    -0.253753463426E+04    0.85887E-01   -0.54152E-01  8909   0.615E-01    0.174E+00
RMM:   7    -0.253753337550E+04    0.12588E-02   -0.18352E-01  9600   0.338E-01    0.118E+00
RMM:   8    -0.253753272245E+04    0.65306E-03   -0.50455E-02  9435   0.198E-01    0.900E-01
RMM:   9    -0.253753521505E+04   -0.24926E-02   -0.25551E-02  9569   0.105E-01    0.413E-01
RMM:  10    -0.253753566940E+04   -0.45436E-03   -0.80759E-03  8566   0.831E-02    0.358E-01
RMM:  11    -0.253753608592E+04   -0.41652E-03   -0.56458E-03  7854   0.471E-02    0.227E-01
RMM:  12    -0.253753581833E+04    0.26759E-03   -0.29116E-03  7519   0.578E-02    0.169E-01
RMM:  13    -0.253753589930E+04   -0.80966E-04   -0.27262E-03  7142   0.423E-02    0.656E-02
RMM:  14    -0.253753599229E+04   -0.92994E-04   -0.10862E-03  4965   0.385E-02    0.745E-02
RMM:  15    -0.253753608196E+04   -0.89672E-04   -0.93826E-04  4653   0.307E-02
  43 F= -.25375361E+04 E0= -.25374922E+04  d E =-.646717E+00  mag=   255.0000
       N       E                     dE             d eps       ncg     rms          rms(c)
DAV:   1    -0.248526496048E+04    0.52271E+02   -0.82293E+03  6080   0.792E+01    0.296E+01
RMM:   2    -0.253004312015E+04   -0.44778E+02   -0.48824E+02  7906   0.314E+01    0.222E+01
RMM:   3    -0.253974845015E+04   -0.97053E+01   -0.98515E+01  8803   0.942E+00    0.152E+01
RMM:   4    -0.253811378560E+04    0.16347E+01   -0.10005E+01  9185   0.337E+00    0.128E+01
RMM:   5    -0.253712259236E+04    0.99119E+00   -0.65768E+00  9305   0.180E+00    0.924E+00
RMM:   6    -0.253684226414E+04    0.28033E+00   -0.28714E+00  9477   0.140E+00    0.577E+00
RMM:   7    -0.253680195431E+04    0.40310E-01   -0.46111E-01  9408   0.653E-01    0.444E+00
RMM:   8    -0.253676484287E+04    0.37111E-01   -0.26659E-01  9099   0.456E-01    0.336E+00
RMM:   9    -0.253675043206E+04    0.14411E-01   -0.27026E-01  8712   0.422E-01    0.136E+00
RMM:  10    -0.253676008901E+04   -0.96569E-02   -0.16000E-01  9471   0.380E-01    0.984E-01
RMM:  11    -0.253676132493E+04   -0.12359E-02   -0.45119E-02  9947   0.146E-01    0.733E-01
RMM:  12    -0.253675333951E+04    0.79854E-02   -0.18319E-02  8673   0.128E-01    0.424E-01
RMM:  13    -0.253675262277E+04    0.71674E-03   -0.22144E-02  9227   0.113E-01    0.157E-01
RMM:  14    -0.253675281861E+04   -0.19584E-03   -0.27702E-03  6858   0.644E-02    0.136E-01
RMM:  15    -0.253675298324E+04   -0.16462E-03   -0.19242E-03  5941   0.329E-02    0.875E-02
RMM:  16    -0.253675294566E+04    0.37573E-04   -0.51169E-04  4292   0.344E-02
  44 F= -.25367529E+04 E0= -.25367135E+04  d E =0.136420E+00  mag=   255.0000
       N       E                     dE             d eps       ncg     rms          rms(c)
DAV:   1    -0.249699354106E+04    0.39759E+02   -0.66616E+03  6160   0.706E+01    0.299E+01
RMM:   2    -0.253213653964E+04   -0.35143E+02   -0.38882E+02  7920   0.282E+01    0.254E+01
RMM:   3    -0.254052987937E+04   -0.83933E+01   -0.85296E+01  8877   0.802E+00    0.123E+01
RMM:   4    -0.253839910367E+04    0.21308E+01   -0.83529E+00  8952   0.319E+00    0.907E+00
RMM:   5    -0.253786232900E+04    0.53677E+00   -0.50698E+00  9491   0.168E+00    0.738E+00
RMM:   6    -0.253764099865E+04    0.22133E+00   -0.23767E+00  9305   0.111E+00    0.460E+00
RMM:   7    -0.253759301841E+04    0.47980E-01   -0.50176E-01  9819   0.568E-01    0.302E+00
RMM:   8    -0.253757423895E+04    0.18779E-01   -0.24325E-01  8845   0.435E-01    0.190E+00
RMM:   9    -0.253757572902E+04   -0.14901E-02   -0.14211E-01  9003   0.310E-01    0.122E+00
RMM:  10    -0.253756606720E+04    0.96618E-02   -0.73523E-02  9079   0.259E-01    0.757E-01
RMM:  11    -0.253757046723E+04   -0.44000E-02   -0.63625E-02  9857   0.152E-01    0.374E-01
RMM:  12    -0.253756825487E+04    0.22124E-02   -0.65312E-03  8418   0.936E-02    0.369E-01
RMM:  13    -0.253756802444E+04    0.23044E-03   -0.38898E-03  8225   0.548E-02    0.211E-01
RMM:  14    -0.253756799088E+04    0.33559E-04   -0.34201E-03  8117   0.501E-02    0.871E-02
RMM:  15    -0.253756803461E+04   -0.43729E-04   -0.69129E-04  4801   0.331E-02
  45 F= -.25375680E+04 E0= -.25375242E+04  d E =-.678669E+00  mag=   255.0000
       N       E                     dE             d eps       ncg     rms          rms(c)
DAV:   1    -0.253697099816E+04    0.59699E+00   -0.10793E+02  6800   0.941E+00    0.656E+00
RMM:   2    -0.253759659438E+04   -0.62560E+00   -0.59818E+00  7657   0.420E+00    0.478E+00
RMM:   3    -0.253782760579E+04   -0.23101E+00   -0.16435E+00  8637   0.127E+00    0.207E+00
RMM:   4    -0.253782449088E+04    0.31149E-02   -0.16362E-01  8809   0.544E-01    0.219E+00
RMM:   5    -0.253782607899E+04   -0.15881E-02   -0.66693E-02 10255   0.184E-01    0.159E+00
RMM:   6    -0.253781961905E+04    0.64599E-02   -0.33088E-02  8050   0.235E-01    0.116E+00
RMM:   7    -0.253782059747E+04   -0.97843E-03   -0.24976E-02  8772   0.166E-01    0.801E-01
RMM:   8    -0.253782100699E+04   -0.40952E-03   -0.62861E-03  8806   0.844E-02    0.418E-01
RMM:   9    -0.253782018425E+04    0.82274E-03   -0.17502E-03  7478   0.464E-02    0.216E-01
RMM:  10    -0.253781991070E+04    0.27355E-03   -0.19849E-03  7607   0.470E-02    0.157E-01
RMM:  11    -0.253781992952E+04   -0.18826E-04   -0.56886E-04  5162   0.339E-02
  46 F= -.25378199E+04 E0= -.25377724E+04  d E =-.251895E+00  mag=   255.0000
       N       E                     dE             d eps       ncg     rms          rms(c)
DAV:   1    -0.253781309663E+04    0.68141E-02   -0.17981E+00  7440   0.121E+00    0.826E-01
RMM:   2    -0.253782340374E+04   -0.10307E-01   -0.96273E-02  7603   0.531E-01    0.602E-01
RMM:   3    -0.253782719095E+04   -0.37872E-02   -0.27348E-02  8624   0.164E-01    0.287E-01
RMM:   4    -0.253782713735E+04    0.53600E-04   -0.28458E-03  7767   0.714E-02    0.277E-01
RMM:   5    -0.253782708361E+04    0.53747E-04   -0.71197E-04  5165   0.321E-02
  47 F= -.25378271E+04 E0= -.25377791E+04  d E =-.259049E+00  mag=   255.0000
       N       E                     dE             d eps       ncg     rms          rms(c)
DAV:   1    -0.253749872561E+04    0.32841E+00   -0.93493E+01  6400   0.874E+00    0.419E+00
RMM:   2    -0.253793046258E+04   -0.43174E+00   -0.47178E+00  8049   0.350E+00    0.311E+00
RMM:   3    -0.253804530644E+04   -0.11484E+00   -0.97376E-01  8719   0.994E-01    0.182E+00
RMM:   4    -0.253804352584E+04    0.17806E-02   -0.10225E-01  8947   0.390E-01    0.178E+00
RMM:   5    -0.253804376571E+04   -0.23987E-03   -0.39572E-02  9916   0.160E-01    0.126E+00
RMM:   6    -0.253804208413E+04    0.16816E-02   -0.35607E-02  7965   0.247E-01    0.963E-01
RMM:   7    -0.253804436327E+04   -0.22791E-02   -0.15671E-02  9066   0.129E-01    0.412E-01
RMM:   8    -0.253804422284E+04    0.14043E-03   -0.27850E-03  8162   0.570E-02    0.297E-01
RMM:   9    -0.253804384051E+04    0.38233E-03   -0.17254E-03  7433   0.417E-02    0.243E-01
RMM:  10    -0.253804369596E+04    0.14455E-03   -0.19352E-03  7837   0.437E-02    0.822E-02
RMM:  11    -0.253761763280E+04    0.42606E+00   -0.63906E+00  3997   0.177E+00    0.870E-02
RMM:  12    -0.253794375241E+04   -0.32612E+00   -0.14634E+00  3855   0.453E-01    0.427E-02
RMM:  13    -0.253801572646E+04   -0.71974E-01   -0.36450E-01  3830   0.284E-01    0.321E-02
RMM:  14    -0.253803488103E+04   -0.19155E-01   -0.10093E-01  3824   0.163E-01    0.237E-02
RMM:  15    -0.253804049972E+04   -0.56187E-02   -0.31248E-02  3822   0.930E-02    0.182E-02
RMM:  16    -0.253804236833E+04   -0.18686E-02   -0.11439E-02  3836   0.591E-02    0.137E-02
RMM:  17    -0.253804324938E+04   -0.88105E-03   -0.66142E-03  3828   0.378E-02    0.921E-03
RMM:  18    -0.253804363863E+04   -0.38925E-03   -0.33429E-03  3839   0.274E-02    0.810E-03
RMM:  19    -0.253804371021E+04   -0.71584E-04   -0.62712E-04  3826   0.166E-02
  48 F= -.25380437E+04 E0= -.25379952E+04  d E =-.216627E+00  mag=   255.0000
       N       E                     dE             d eps       ncg     rms          rms(c)
DAV:   1    -0.253755784650E+04    0.48579E+00   -0.10106E+02  6400   0.908E+00    0.410E+00
RMM:   2    -0.253801997243E+04   -0.46213E+00   -0.50718E+00  8066   0.364E+00    0.305E+00
RMM:   3    -0.253813971334E+04   -0.11974E+00   -0.10279E+00  8728   0.103E+00    0.177E+00
RMM:   4    -0.253813749877E+04    0.22146E-02   -0.10783E-01  9095   0.389E-01    0.159E+00
RMM:   5    -0.253813668218E+04    0.81658E-03   -0.40947E-02  9962   0.160E-01    0.112E+00
RMM:   6    -0.253813426871E+04    0.24135E-02   -0.33330E-02  8128   0.222E-01    0.840E-01
RMM:   7    -0.253813629895E+04   -0.20302E-02   -0.14515E-02  9186   0.119E-01    0.410E-01
RMM:   8    -0.253813596167E+04    0.33728E-03   -0.25790E-03  7825   0.599E-02    0.343E-01
RMM:   9    -0.253813570332E+04    0.25835E-03   -0.12777E-03  6882   0.355E-02    0.162E-01
RMM:  10    -0.253813556397E+04    0.13935E-03   -0.23953E-03  7878   0.450E-02    0.955E-02
RMM:  11    -0.253813556514E+04   -0.11673E-05   -0.20746E-04  3926   0.238E-02
  49 F= -.25381356E+04 E0= -.25380916E+04  d E =-.308482E+00  mag=   255.0000
       N       E                     dE             d eps       ncg     rms          rms(c)
DAV:   1    -0.253768985750E+04    0.44571E+00   -0.13485E+02  7680   0.107E+01    0.459E+00
RMM:   2    -0.253816928456E+04   -0.47943E+00   -0.56267E+00  7721   0.400E+00    0.345E+00
RMM:   3    -0.253832081997E+04   -0.15154E+00   -0.14455E+00  8701   0.122E+00    0.183E+00
RMM:   4    -0.253831240296E+04    0.84170E-02   -0.14658E-01  9043   0.475E-01    0.178E+00
RMM:   5    -0.253831089731E+04    0.15057E-02   -0.56448E-02  9808   0.185E-01    0.124E+00
RMM:   6    -0.253830692989E+04    0.39674E-02   -0.35020E-02  8084   0.226E-01    0.941E-01
RMM:   7    -0.253830872640E+04   -0.17965E-02   -0.22302E-02  9131   0.134E-01    0.426E-01
RMM:   8    -0.253830832140E+04    0.40500E-03   -0.33062E-03  8013   0.618E-02    0.261E-01
RMM:   9    -0.253830797202E+04    0.34938E-03   -0.18813E-03  7508   0.431E-02    0.153E-01
RMM:  10    -0.253830787718E+04    0.94836E-04   -0.22957E-03  7848   0.476E-02    0.135E-01
RMM:  11    -0.253830789027E+04   -0.13089E-04   -0.39581E-04  4443   0.279E-02
  50 F= -.25383079E+04 E0= -.25382694E+04  d E =-.172325E+00  mag=   255.0000
       N       E                     dE             d eps       ncg     rms          rms(c)
DAV:   1    -0.253825672240E+04    0.51155E-01   -0.18322E+01  7760   0.394E+00    0.166E+00
RMM:   2    -0.253832060556E+04   -0.63883E-01   -0.75961E-01  7753   0.147E+00    0.120E+00
RMM:   3    -0.253834093123E+04   -0.20326E-01   -0.19600E-01  8723   0.445E-01    0.632E-01
RMM:   4    -0.253833967220E+04    0.12590E-02   -0.19929E-02  8851   0.178E-01    0.617E-01
RMM:   5    -0.253833946495E+04    0.20726E-03   -0.77540E-03  8732   0.706E-02    0.426E-01
RMM:   6    -0.253833890895E+04    0.55600E-03   -0.50636E-03  7858   0.876E-02    0.317E-01
RMM:   7    -0.253833912921E+04   -0.22027E-03   -0.29971E-03  8451   0.512E-02    0.147E-01
RMM:   8    -0.253833905140E+04    0.77819E-04   -0.30807E-04  4255   0.277E-02
  51 F= -.25383391E+04 E0= -.25383021E+04  d E =-.203486E+00  mag=   255.0000
       N       E                     dE             d eps       ncg     rms          rms(c)
DAV:   1    -0.253808127267E+04    0.25786E+00   -0.99384E+01  6640   0.891E+00    0.274E+00
RMM:   2    -0.253846374012E+04   -0.38247E+00   -0.36127E+00  7922   0.308E+00    0.169E+00
RMM:   3    -0.253856086159E+04   -0.97121E-01   -0.84332E-01  8697   0.864E-01    0.103E+00
RMM:   4    -0.253855935856E+04    0.15030E-02   -0.10277E-01  8830   0.325E-01    0.904E-01
RMM:   5    -0.253855841042E+04    0.94815E-03   -0.37478E-02  9680   0.125E-01    0.676E-01
RMM:   6    -0.253855585573E+04    0.25547E-02   -0.17283E-02  8225   0.150E-01    0.600E-01
RMM:   7    -0.253855640834E+04   -0.55261E-03   -0.14028E-02  8906   0.948E-02    0.263E-01
RMM:   8    -0.253855670535E+04   -0.29701E-03   -0.25993E-03  7297   0.574E-02    0.218E-01
RMM:   9    -0.253855651865E+04    0.18669E-03   -0.10863E-03  5736   0.379E-02    0.160E-01
RMM:  10    -0.253855648224E+04    0.36414E-04   -0.59253E-04  4910   0.268E-02
  52 F= -.25385565E+04 E0= -.25385211E+04  d E =-.217431E+00  mag=   255.0000
       N       E                     dE             d eps       ncg     rms          rms(c)
DAV:   1    -0.253813896649E+04    0.41755E+00   -0.12687E+02  6640   0.101E+01    0.310E+00
RMM:   2    -0.253862812596E+04   -0.48916E+00   -0.46188E+00  7914   0.349E+00    0.190E+00
RMM:   3    -0.253875239927E+04   -0.12427E+00   -0.10808E+00  8694   0.981E-01    0.116E+00
RMM:   4    -0.253875051206E+04    0.18872E-02   -0.13227E-01  8895   0.368E-01    0.101E+00
RMM:   5    -0.253874911120E+04    0.14009E-02   -0.47858E-02  9684   0.141E-01    0.745E-01
RMM:   6    -0.253874574247E+04    0.33687E-02   -0.22870E-02  8241   0.173E-01    0.674E-01
RMM:   7    -0.253874649425E+04   -0.75178E-03   -0.17851E-02  8918   0.105E-01    0.284E-01
RMM:   8    -0.253874679268E+04   -0.29843E-03   -0.31761E-03  7465   0.663E-02    0.236E-01
RMM:   9    -0.253874661238E+04    0.18029E-03   -0.14301E-03  6138   0.376E-02    0.155E-01
RMM:  10    -0.253874656787E+04    0.44515E-04   -0.88839E-04  5624   0.301E-02
  53 F= -.25387466E+04 E0= -.25387123E+04  d E =-.407516E+00  mag=   255.0000
       N       E                     dE             d eps       ncg     rms          rms(c)
DAV:   1    -0.253646999128E+04    0.22766E+01   -0.50672E+02  6640   0.201E+01    0.628E+00
RMM:   2    -0.253846769878E+04   -0.19977E+01   -0.18908E+01  7934   0.702E+00    0.392E+00
RMM:   3    -0.253896397003E+04   -0.49627E+00   -0.43225E+00  8681   0.198E+00    0.233E+00
RMM:   4    -0.253895462136E+04    0.93487E-02   -0.52272E-01  8929   0.748E-01    0.199E+00
RMM:   5    -0.253894708011E+04    0.75412E-02   -0.19331E-01  9752   0.281E-01    0.144E+00
RMM:   6    -0.253893219990E+04    0.14880E-01   -0.92923E-02  8204   0.352E-01    0.134E+00
RMM:   7    -0.253893544078E+04   -0.32409E-02   -0.69689E-02  9039   0.206E-01    0.578E-01
RMM:   8    -0.253893632954E+04   -0.88876E-03   -0.12537E-02  8636   0.129E-01    0.482E-01
RMM:   9    -0.253893568485E+04    0.64469E-03   -0.63500E-03  8603   0.648E-02    0.249E-01
RMM:  10    -0.253893561965E+04    0.65201E-04   -0.33051E-03  8402   0.456E-02    0.146E-01
RMM:  11    -0.253893566655E+04   -0.46896E-04   -0.13874E-03  6079   0.345E-02    0.715E-02
RMM:  12    -0.253893570425E+04   -0.37704E-04   -0.56389E-04  4637   0.329E-02
  54 F= -.25389357E+04 E0= -.25389039E+04  d E =-.596653E+00  mag=   255.0000
       N       E                     dE             d eps       ncg     rms          rms(c)
DAV:   1    -0.253887929564E+04    0.56371E-01   -0.37493E+01  6720   0.538E+00    0.132E+00
RMM:   2    -0.253901526333E+04   -0.13597E+00   -0.13507E+00  7841   0.184E+00    0.829E-01
RMM:   3    -0.253904735648E+04   -0.32093E-01   -0.30180E-01  8673   0.515E-01    0.528E-01
RMM:   4    -0.253904744341E+04   -0.86936E-04   -0.39246E-02  9255   0.165E-01    0.423E-01
RMM:   5    -0.253904676628E+04    0.67713E-03   -0.14493E-02  9084   0.754E-02    0.309E-01
RMM:   6    -0.253904616368E+04    0.60260E-03   -0.67961E-03  8417   0.867E-02    0.315E-01
RMM:   7    -0.253904647504E+04   -0.31136E-03   -0.50425E-03  8445   0.558E-02    0.123E-01
RMM:   8    -0.253904647533E+04   -0.28039E-06   -0.77514E-04  5291   0.408E-02
  55 F= -.25390465E+04 E0= -.25390156E+04  d E =-.110771E+00  mag=   255.0000
       N       E                     dE             d eps       ncg     rms          rms(c)
DAV:   1    -0.253778868603E+04    0.12578E+01   -0.33666E+02  6240   0.161E+01    0.406E+00
RMM:   2    -0.253903234955E+04   -0.12437E+01   -0.12374E+01  7857   0.555E+00    0.262E+00
RMM:   3    -0.253932028098E+04   -0.28793E+00   -0.26992E+00  8683   0.156E+00    0.163E+00
RMM:   4    -0.253932140592E+04   -0.11249E-02   -0.35063E-01  9322   0.504E-01    0.134E+00
RMM:   5    -0.253931476265E+04    0.66433E-02   -0.12373E-01  9631   0.216E-01    0.964E-01
RMM:   6    -0.253930753953E+04    0.72231E-02   -0.58391E-02  8594   0.241E-01    0.803E-01
RMM:   7    -0.253931027390E+04   -0.27344E-02   -0.40134E-02  9073   0.157E-01    0.373E-01
RMM:   8    -0.253931027584E+04   -0.19365E-05   -0.61835E-03  8370   0.868E-02    0.318E-01
RMM:   9    -0.253930983971E+04    0.43614E-03   -0.46779E-03  7947   0.554E-02    0.208E-01
RMM:  10    -0.253930982816E+04    0.11544E-04   -0.16002E-03  6397   0.385E-02    0.119E-01
RMM:  11    -0.253930988361E+04   -0.55452E-04   -0.13317E-03  5901   0.340E-02    0.666E-02
RMM:  12    -0.253930992385E+04   -0.40235E-04   -0.49958E-04  4509   0.341E-02
  56 F= -.25393099E+04 E0= -.25392828E+04  d E =-.374220E+00  mag=   255.0000
       N       E                     dE             d eps       ncg     rms          rms(c)
DAV:   1    -0.253310912422E+04    0.62008E+01   -0.13423E+03  6160   0.323E+01    0.881E+00
RMM:   2    -0.253833534290E+04   -0.52262E+01   -0.52411E+01  7833   0.114E+01    0.635E+00
RMM:   3    -0.253953906614E+04   -0.12037E+01   -0.11340E+01  8675   0.328E+00    0.360E+00
RMM:   4    -0.253952331671E+04    0.15749E-01   -0.14413E+00  9203   0.109E+00    0.304E+00
RMM:   5    -0.253949609581E+04    0.27221E-01   -0.49208E-01  9807   0.423E-01    0.222E+00
RMM:   6    -0.253944892429E+04    0.47172E-01   -0.29030E-01  8522   0.541E-01    0.156E+00
RMM:   7    -0.253946079511E+04   -0.11871E-01   -0.16269E-01  9249   0.312E-01    0.953E-01
RMM:   8    -0.253945892992E+04    0.18652E-02   -0.23266E-02  8993   0.174E-01    0.568E-01
RMM:   9    -0.253945756527E+04    0.13647E-02   -0.21389E-02  9195   0.125E-01    0.515E-01
RMM:  10    -0.253945786993E+04   -0.30466E-03   -0.87411E-03  9622   0.640E-02    0.294E-01
RMM:  11    -0.253945790097E+04   -0.31045E-04   -0.26563E-03  6693   0.460E-02    0.119E-01
RMM:  12    -0.253945796292E+04   -0.61950E-04   -0.14303E-03  5974   0.396E-02    0.880E-02
RMM:  13    -0.253945803341E+04   -0.70492E-04   -0.10640E-03  4901   0.341E-02    0.405E-02
RMM:  14    -0.253945807951E+04   -0.46091E-04   -0.57207E-04  4564   0.337E-02
  57 F= -.25394581E+04 E0= -.25394370E+04  d E =-.522375E+00  mag=   255.0000
       N       E                     dE             d eps       ncg     rms          rms(c)
DAV:   1    -0.253874051929E+04    0.71751E+00   -0.16367E+02  6480   0.112E+01    0.289E+00
RMM:   2    -0.253933660798E+04   -0.59609E+00   -0.59697E+00  7822   0.393E+00    0.194E+00
RMM:   3    -0.253947952142E+04   -0.14291E+00   -0.13398E+00  8647   0.111E+00    0.107E+00
RMM:   4    -0.253947863399E+04    0.88744E-03   -0.16521E-01  9155   0.344E-01    0.811E-01
RMM:   5    -0.253947336347E+04    0.52705E-02   -0.54886E-02  9352   0.160E-01    0.544E-01
RMM:   6    -0.253947056223E+04    0.28012E-02   -0.27984E-02  8735   0.159E-01    0.451E-01
RMM:   7    -0.253947158223E+04   -0.10200E-02   -0.13030E-02  9194   0.833E-02    0.203E-01
RMM:   8    -0.253947130571E+04    0.27651E-03   -0.19806E-03  6781   0.546E-02    0.164E-01
RMM:   9    -0.253947128069E+04    0.25018E-04   -0.17841E-03  7004   0.421E-02    0.117E-01
RMM:  10    -0.253947131170E+04   -0.31011E-04   -0.51611E-04  4860   0.287E-02
  58 F= -.25394713E+04 E0= -.25394486E+04  d E =-.535607E+00  mag=   255.0000
       N       E                     dE             d eps       ncg     rms          rms(c)
DAV:   1    -0.253923372763E+04    0.23755E+00   -0.11289E+02  7280   0.952E+00    0.317E+00
RMM:   2    -0.253963958687E+04   -0.40586E+00   -0.44847E+00  7806   0.349E+00    0.232E+00
RMM:   3    -0.253975084560E+04   -0.11126E+00   -0.10585E+00  8791   0.102E+00    0.120E+00
RMM:   4    -0.253974654808E+04    0.42975E-02   -0.11691E-01  9334   0.357E-01    0.108E+00
RMM:   5    -0.253974243707E+04    0.41110E-02   -0.47305E-02  9209   0.162E-01    0.640E-01
RMM:   6    -0.253974235316E+04    0.83908E-04   -0.25461E-02  8705   0.152E-01    0.386E-01
RMM:   7    -0.253974283024E+04   -0.47708E-03   -0.71791E-03  8959   0.688E-02    0.220E-01
RMM:   8    -0.253974245813E+04    0.37211E-03   -0.20183E-03  7320   0.428E-02    0.120E-01
RMM:   9    -0.253974234516E+04    0.11297E-03   -0.16579E-03  7002   0.375E-02    0.692E-02
RMM:  10    -0.253974235401E+04   -0.88455E-05   -0.52178E-04  4993   0.319E-02
  59 F= -.25397424E+04 E0= -.25397205E+04  d E =-.271042E+00  mag=   255.0000
       N       E                     dE             d eps       ncg     rms          rms(c)
DAV:   1    -0.253904403105E+04    0.69831E+00   -0.21729E+02  7360   0.132E+01    0.443E+00
RMM:   2    -0.253982355236E+04   -0.77952E+00   -0.85500E+00  7774   0.485E+00    0.336E+00
RMM:   3    -0.254004404975E+04   -0.22050E+00   -0.21021E+00  8823   0.143E+00    0.173E+00
RMM:   4    -0.254003593389E+04    0.81159E-02   -0.23425E-01  9366   0.494E-01    0.158E+00
RMM:   5    -0.254002778897E+04    0.81449E-02   -0.96724E-02  9273   0.229E-01    0.920E-01
RMM:   6    -0.254002789552E+04   -0.10655E-03   -0.50776E-02  8797   0.212E-01    0.535E-01
RMM:   7    -0.254002899355E+04   -0.10980E-02   -0.15344E-02  9757   0.956E-02    0.299E-01
RMM:   8    -0.254002833555E+04    0.65801E-03   -0.45657E-03  9118   0.559E-02    0.170E-01
RMM:   9    -0.254002815090E+04    0.18465E-03   -0.33239E-03  8499   0.457E-02    0.958E-02
RMM:  10    -0.254002816781E+04   -0.16910E-04   -0.99831E-04  6101   0.363E-02
  60 F= -.25400282E+04 E0= -.25400067E+04  d E =-.556856E+00  mag=   255.0000
       N       E                     dE             d eps       ncg     rms          rms(c)
DAV:   1    -0.253615960839E+04    0.38685E+01   -0.86630E+02  7120   0.265E+01    0.946E+00
RMM:   2    -0.253941996960E+04   -0.32604E+01   -0.35188E+01  7695   0.990E+00    0.778E+00
RMM:   3    -0.254034379082E+04   -0.92382E+00   -0.87738E+00  8791   0.295E+00    0.385E+00
RMM:   4    -0.254030677364E+04    0.37017E-01   -0.97443E-01  9450   0.100E+00    0.351E+00
RMM:   5    -0.254026736494E+04    0.39409E-01   -0.39397E-01  9271   0.461E-01    0.209E+00
RMM:   6    -0.254026307437E+04    0.42906E-02   -0.18944E-01  8813   0.412E-01    0.102E+00
RMM:   7    -0.254026813301E+04   -0.50586E-02   -0.61552E-02  9887   0.193E-01    0.602E-01
RMM:   8    -0.254026675420E+04    0.13788E-02   -0.16281E-02 10080   0.980E-02    0.333E-01
RMM:   9    -0.254001233292E+04    0.25442E+00   -0.12942E+01  9576   0.165E+00    0.212E-01
RMM:  10    -0.254015932484E+04   -0.14699E+00   -0.18673E+00  9417   0.567E-01    0.154E-01
RMM:  11    -0.254023987105E+04   -0.80546E-01   -0.37681E-01  5876   0.280E-01    0.846E-02
RMM:  12    -0.254025798049E+04   -0.18109E-01   -0.92853E-02  4894   0.156E-01    0.578E-02
RMM:  13    -0.254026343522E+04   -0.54547E-02   -0.33973E-02  4650   0.884E-02    0.423E-02
RMM:  14    -0.254026504574E+04   -0.16105E-02   -0.12244E-02  4397   0.627E-02    0.247E-02
RMM:  15    -0.254026570680E+04   -0.66106E-03   -0.53895E-03  4357   0.421E-02    0.183E-02
RMM:  16    -0.254026620577E+04   -0.49897E-03   -0.45872E-03  4289   0.383E-02    0.903E-03
RMM:  17    -0.254026631738E+04   -0.11162E-03   -0.10895E-03  4223   0.240E-02    0.792E-03
RMM:  18    -0.254026638315E+04   -0.65763E-04   -0.66204E-04  4133   0.248E-02
  61 F= -.25402664E+04 E0= -.25402444E+04  d E =-.795071E+00  mag=   255.0000
       N       E                     dE             d eps       ncg     rms          rms(c)
DAV:   1    -0.253918364265E+04    0.10827E+01   -0.29476E+02  6080   0.151E+01    0.463E+00
RMM:   2    -0.254030949418E+04   -0.11259E+01   -0.10932E+01  7792   0.543E+00    0.284E+00
RMM:   3    -0.254061511515E+04   -0.30562E+00   -0.26763E+00  8576   0.153E+00    0.161E+00
RMM:   4    -0.254061462650E+04    0.48865E-03   -0.31858E-01  9358   0.520E-01    0.132E+00
RMM:   5    -0.254061064965E+04    0.39768E-02   -0.10433E-01 10098   0.197E-01    0.945E-01
RMM:   6    -0.254060306727E+04    0.75824E-02   -0.50940E-02  8558   0.229E-01    0.718E-01
RMM:   7    -0.254060516109E+04   -0.20938E-02   -0.28615E-02  9328   0.130E-01    0.384E-01
RMM:   8    -0.254060559189E+04   -0.43080E-03   -0.55094E-03  8465   0.770E-02    0.249E-01
RMM:   9    -0.254060531654E+04    0.27535E-03   -0.34437E-03  7947   0.496E-02    0.187E-01
RMM:  10    -0.254060528061E+04    0.35931E-04   -0.12713E-03  6050   0.340E-02    0.100E-01
RMM:  11    -0.254060531262E+04   -0.32017E-04   -0.94851E-04  5430   0.359E-02
  62 F= -.25406053E+04 E0= -.25405829E+04  d E =-.338929E+00  mag=   255.0000
       N       E                     dE             d eps       ncg     rms          rms(c)
DAV:   1    -0.254036711292E+04    0.23817E+00   -0.64162E+01  6400   0.703E+00    0.216E+00
RMM:   2    -0.254061744982E+04   -0.25034E+00   -0.24114E+00  7845   0.254E+00    0.130E+00
RMM:   3    -0.254068348657E+04   -0.66037E-01   -0.57750E-01  8604   0.703E-01    0.748E-01
RMM:   4    -0.254068360418E+04   -0.11762E-03   -0.70935E-02  9400   0.239E-01    0.609E-01
RMM:   5    -0.254068255335E+04    0.10508E-02   -0.23699E-02  9749   0.959E-02    0.443E-01
RMM:   6    -0.254068116318E+04    0.13902E-02   -0.11011E-02  8672   0.106E-01    0.323E-01
RMM:   7    -0.254068163432E+04   -0.47114E-03   -0.64119E-03  9053   0.616E-02    0.159E-01
RMM:   8    -0.254068172211E+04   -0.87785E-04   -0.10774E-03  6022   0.413E-02    0.119E-01
RMM:   9    -0.254068169059E+04    0.31516E-04   -0.64696E-04  4746   0.316E-02
  63 F= -.25406817E+04 E0= -.25406592E+04  d E =-.415307E+00  mag=   255.0000
       N       E                     dE             d eps       ncg     rms          rms(c)
DAV:   1    -0.253941697614E+04    0.12647E+01   -0.25626E+02  6080   0.141E+01    0.434E+00
RMM:   2    -0.254040109692E+04   -0.98412E+00   -0.95508E+00  7769   0.513E+00    0.264E+00
RMM:   3    -0.254067519302E+04   -0.27410E+00   -0.24049E+00  8558   0.145E+00    0.153E+00
RMM:   4    -0.254067537684E+04   -0.18382E-03   -0.28233E-01  9361   0.493E-01    0.126E+00
RMM:   5    -0.254067216080E+04    0.32160E-02   -0.91767E-02 10132   0.186E-01    0.914E-01
RMM:   6    -0.254066535755E+04    0.68033E-02   -0.43548E-02  8592   0.214E-01    0.668E-01
RMM:   7    -0.254066720365E+04   -0.18461E-02   -0.26345E-02  9241   0.127E-01    0.360E-01
RMM:   8    -0.254066758329E+04   -0.37964E-03   -0.48760E-03  8425   0.732E-02    0.233E-01
RMM:   9    -0.254066732998E+04    0.25331E-03   -0.29382E-03  7737   0.471E-02    0.165E-01
RMM:  10    -0.254066728199E+04    0.47994E-04   -0.10585E-03  5866   0.340E-02    0.915E-02
RMM:  11    -0.254066730929E+04   -0.27299E-04   -0.90124E-04  5323   0.353E-02
  64 F= -.25406673E+04 E0= -.25406442E+04  d E =-.400926E+00  mag=   255.0000
       N       E                     dE             d eps       ncg     rms          rms(c)
DAV:   1    -0.254016621441E+04    0.50107E+00   -0.10677E+02  6400   0.909E+00    0.292E+00
RMM:   2    -0.254059321405E+04   -0.42700E+00   -0.40950E+00  7836   0.333E+00    0.180E+00
RMM:   3    -0.254070739075E+04   -0.11418E+00   -0.99106E-01  8561   0.930E-01    0.992E-01
RMM:   4    -0.254070733146E+04    0.59294E-04   -0.11679E-01  9395   0.313E-01    0.820E-01
RMM:   5    -0.254070470558E+04    0.26259E-02   -0.35102E-02  9755   0.126E-01    0.594E-01
RMM:   6    -0.254070215799E+04    0.25476E-02   -0.15718E-02  8606   0.124E-01    0.433E-01
RMM:   7    -0.254070256796E+04   -0.40997E-03   -0.88626E-03  9080   0.744E-02    0.193E-01
RMM:   8    -0.254070264399E+04   -0.76034E-04   -0.15733E-03  6897   0.468E-02    0.140E-01
RMM:   9    -0.254070258589E+04    0.58104E-04   -0.60375E-04  5000   0.342E-02
  65 F= -.25407026E+04 E0= -.25406799E+04  d E =-.436203E+00  mag=   255.0000
       N       E                     dE             d eps       ncg     rms          rms(c)
DAV:   1    -0.254056043756E+04    0.14221E+00   -0.54364E+01  6800   0.666E+00    0.253E+00
RMM:   2    -0.254082205349E+04   -0.26162E+00   -0.23220E+00  8044   0.249E+00    0.155E+00
RMM:   3    -0.254088484896E+04   -0.62795E-01   -0.48400E-01  8560   0.679E-01    0.728E-01
RMM:   4    -0.254088393981E+04    0.90916E-03   -0.55282E-02  8833   0.255E-01    0.560E-01
RMM:   5    -0.254088184868E+04    0.20911E-02   -0.21770E-02  9240   0.113E-01    0.456E-01
RMM:   6    -0.254088124922E+04    0.59946E-03   -0.85849E-03  9216   0.859E-02    0.218E-01
RMM:   7    -0.254088151164E+04   -0.26242E-03   -0.31336E-03  8084   0.478E-02    0.132E-01
RMM:   8    -0.254088155911E+04   -0.47474E-04   -0.59351E-04  5124   0.347E-02
  66 F= -.25408816E+04 E0= -.25408586E+04  d E =-.178973E+00  mag=   255.0000
       N       E                     dE             d eps       ncg     rms          rms(c)
DAV:   1    -0.253950609513E+04    0.13754E+01   -0.25702E+02  6800   0.145E+01    0.551E+00
RMM:   2    -0.254075550907E+04   -0.12494E+01   -0.11107E+01  8027   0.544E+00    0.332E+00
RMM:   3    -0.254105897199E+04   -0.30346E+00   -0.23490E+00  8619   0.149E+00    0.160E+00
RMM:   4    -0.254105529574E+04    0.36762E-02   -0.27437E-01  8906   0.567E-01    0.127E+00
RMM:   5    -0.254104802271E+04    0.72730E-02   -0.10512E-01  9501   0.234E-01    0.104E+00
RMM:   6    -0.254104435590E+04    0.36668E-02   -0.45221E-02  9232   0.197E-01    0.545E-01
RMM:   7    -0.254104600844E+04   -0.16525E-02   -0.18869E-02  9724   0.113E-01    0.300E-01
RMM:   8    -0.254104633987E+04   -0.33143E-03   -0.43474E-03  8499   0.608E-02    0.252E-01
RMM:   9    -0.254104632774E+04    0.12131E-04   -0.19112E-03  7200   0.380E-02    0.139E-01
RMM:  10    -0.254104626721E+04    0.60526E-04   -0.11390E-03  6126   0.386E-02    0.977E-02
RMM:  11    -0.254104630534E+04   -0.38127E-04   -0.66910E-04  4969   0.338E-02
  67 F= -.25410463E+04 E0= -.25410218E+04  d E =-.343719E+00  mag=   255.0000
       N       E                     dE             d eps       ncg     rms          rms(c)
DAV:   1    -0.254081792203E+04    0.22835E+00   -0.69975E+01  7200   0.750E+00    0.306E+00
RMM:   2    -0.254112617543E+04   -0.30825E+00   -0.29458E+00  7962   0.289E+00    0.218E+00
RMM:   3    -0.254121230434E+04   -0.86129E-01   -0.69624E-01  8733   0.810E-01    0.965E-01
RMM:   4    -0.254121041772E+04    0.18866E-02   -0.79962E-02  9288   0.286E-01    0.803E-01
RMM:   5    -0.254120773520E+04    0.26825E-02   -0.30134E-02  9383   0.133E-01    0.584E-01
RMM:   6    -0.254120717474E+04    0.56046E-03   -0.15895E-02  8979   0.118E-01    0.311E-01
RMM:   7    -0.254120784809E+04   -0.67336E-03   -0.58807E-03  9200   0.594E-02    0.161E-01
RMM:   8    -0.254120759055E+04    0.25754E-03   -0.90092E-04  5657   0.386E-02    0.131E-01
RMM:   9    -0.254120753028E+04    0.60265E-04   -0.94078E-04  5664   0.342E-02
  68 F= -.25412075E+04 E0= -.25411831E+04  d E =-.161225E+00  mag=   255.0000
       N       E                     dE             d eps       ncg     rms          rms(c)
DAV:   1    -0.254112077040E+04    0.86820E-01   -0.28823E+01  7280   0.481E+00    0.195E+00
RMM:   2    -0.254124904480E+04   -0.12827E+00   -0.12249E+00  8010   0.185E+00    0.137E+00
RMM:   3    -0.254128401228E+04   -0.34967E-01   -0.28161E-01  8753   0.513E-01    0.613E-01
RMM:   4    -0.254128318299E+04    0.82929E-03   -0.32850E-02  9230   0.184E-01    0.502E-01
RMM:   5    -0.254128207038E+04    0.11126E-02   -0.13178E-02  9236   0.899E-02    0.366E-01
RMM:   6    -0.254128197766E+04    0.92720E-04   -0.67180E-03  8968   0.777E-02    0.199E-01
RMM:   7    -0.254128222225E+04   -0.24459E-03   -0.21454E-03  7559   0.379E-02    0.103E-01
RMM:   8    -0.254128212019E+04    0.10206E-03   -0.34139E-04  4351   0.339E-02    0.907E-02
RMM:   9    -0.254128209168E+04    0.28515E-04   -0.32507E-04  4186   0.258E-02
  69 F= -.25412821E+04 E0= -.25412582E+04  d E =-.235786E+00  mag=   255.0000
       N       E                     dE             d eps       ncg     rms          rms(c)
DAV:   1    -0.254071868796E+04    0.56343E+00   -0.11497E+02  7040   0.961E+00    0.397E+00
RMM:   2    -0.254122692739E+04   -0.50824E+00   -0.48465E+00  7919   0.373E+00    0.289E+00
RMM:   3    -0.254137143288E+04   -0.14451E+00   -0.11721E+00  8686   0.106E+00    0.125E+00
RMM:   4    -0.254136877556E+04    0.26573E-02   -0.13404E-01  9416   0.369E-01    0.104E+00
RMM:   5    -0.254136435266E+04    0.44229E-02   -0.49389E-02  9396   0.167E-01    0.756E-01
RMM:   6    -0.254136341207E+04    0.94059E-03   -0.25587E-02  8993   0.152E-01    0.415E-01
RMM:   7    -0.254136461079E+04   -0.11987E-02   -0.99398E-03  9735   0.755E-02    0.208E-01
RMM:   8    -0.254136417122E+04    0.43957E-03   -0.16865E-03  6908   0.485E-02    0.173E-01
RMM:   9    -0.254136408032E+04    0.90900E-04   -0.16531E-03  6566   0.406E-02    0.103E-01
RMM:  10    -0.254136409028E+04   -0.99569E-05   -0.65939E-04  5304   0.350E-02
  70 F= -.25413641E+04 E0= -.25413420E+04  d E =-.317785E+00  mag=   255.0000
       N       E                     dE             d eps       ncg     rms          rms(c)
DAV:   1    -0.254087595047E+04    0.48813E+00   -0.12190E+02  6400   0.979E+00    0.342E+00
RMM:   2    -0.254143255411E+04   -0.55660E+00   -0.53213E+00  8057   0.369E+00    0.212E+00
RMM:   3    -0.254156468012E+04   -0.13213E+00   -0.10966E+00  8708   0.975E-01    0.108E+00
RMM:   4    -0.254156559248E+04   -0.91236E-03   -0.14296E-01  9497   0.342E-01    0.893E-01
RMM:   5    -0.254156362224E+04    0.19702E-02   -0.49906E-02  9884   0.149E-01    0.674E-01
RMM:   6    -0.254156190656E+04    0.17157E-02   -0.28262E-02  8896   0.155E-01    0.398E-01
RMM:   7    -0.254156332419E+04   -0.14176E-02   -0.11821E-02  9564   0.840E-02    0.220E-01
RMM:   8    -0.254156299828E+04    0.32592E-03   -0.18193E-03  6970   0.456E-02    0.142E-01
RMM:   9    -0.254156292577E+04    0.72508E-04   -0.19255E-03  6789   0.412E-02    0.977E-02
RMM:  10    -0.254156294001E+04   -0.14240E-04   -0.54768E-04  4913   0.339E-02
  71 F= -.25415629E+04 E0= -.25415431E+04  d E =-.198850E+00  mag=   255.0000
       N       E                     dE             d eps       ncg     rms          rms(c)
DAV:   1    -0.254140526312E+04    0.15766E+00   -0.41737E+01  6560   0.573E+00    0.201E+00
RMM:   2    -0.254159695769E+04   -0.19169E+00   -0.18286E+00  8066   0.217E+00    0.132E+00
RMM:   3    -0.254164270965E+04   -0.45752E-01   -0.37935E-01  8760   0.572E-01    0.620E-01
RMM:   4    -0.254164298768E+04   -0.27804E-03   -0.49876E-02  9496   0.200E-01    0.504E-01
RMM:   5    -0.254164232510E+04    0.66258E-03   -0.17457E-02  9713   0.870E-02    0.380E-01
RMM:   6    -0.254164169908E+04    0.62602E-03   -0.10093E-02  8959   0.913E-02    0.216E-01
RMM:   7    -0.254164213948E+04   -0.44040E-03   -0.39283E-03  8704   0.499E-02    0.115E-01
RMM:   8    -0.254164205088E+04    0.88601E-04   -0.52768E-04  4779   0.322E-02
  72 F= -.25416421E+04 E0= -.25416226E+04  d E =-.277961E+00  mag=   255.0000
       N       E                     dE             d eps       ncg     rms          rms(c)
DAV:   1    -0.254076698382E+04    0.87516E+00   -0.16664E+02  6240   0.115E+01    0.395E+00
RMM:   2    -0.254152801681E+04   -0.76103E+00   -0.73032E+00  8040   0.434E+00    0.240E+00
RMM:   3    -0.254171258574E+04   -0.18457E+00   -0.15332E+00  8707   0.115E+00    0.119E+00
RMM:   4    -0.254171452826E+04   -0.19425E-02   -0.20103E-01  9485   0.398E-01    0.972E-01
RMM:   5    -0.254171189947E+04    0.26288E-02   -0.65575E-02  9983   0.166E-01    0.728E-01
RMM:   6    -0.254170852805E+04    0.33714E-02   -0.36713E-02  8957   0.170E-01    0.412E-01
RMM:   7    -0.254171008569E+04   -0.15576E-02   -0.16107E-02  9542   0.101E-01    0.216E-01
RMM:   8    -0.254170985208E+04    0.23361E-03   -0.26612E-03  8076   0.476E-02    0.139E-01
RMM:   9    -0.254170982041E+04    0.31668E-04   -0.20864E-03  6991   0.405E-02    0.837E-02
RMM:  10    -0.254170984007E+04   -0.19665E-04   -0.57454E-04  4858   0.319E-02
  73 F= -.25417098E+04 E0= -.25416883E+04  d E =-.345750E+00  mag=   255.0000
       N       E                     dE             d eps       ncg     rms          rms(c)
DAV:   1    -0.254141970344E+04    0.29012E+00   -0.84392E+01  6720   0.820E+00    0.234E+00
RMM:   2    -0.254175635962E+04   -0.33666E+00   -0.34453E+00  7961   0.305E+00    0.184E+00
RMM:   3    -0.254184034358E+04   -0.83984E-01   -0.77411E-01  8728   0.830E-01    0.915E-01
RMM:   4    -0.254184112628E+04   -0.78271E-03   -0.10167E-01  9437   0.268E-01    0.775E-01
RMM:   5    -0.254184027160E+04    0.85468E-03   -0.33486E-02  9943   0.111E-01    0.573E-01
RMM:   6    -0.254183852838E+04    0.17432E-02   -0.21822E-02  8637   0.144E-01    0.384E-01
RMM:   7    -0.254183949919E+04   -0.97081E-03   -0.88364E-03  9496   0.720E-02    0.196E-01
RMM:   8    -0.254183915882E+04    0.34037E-03   -0.13947E-03  6288   0.410E-02    0.125E-01
RMM:   9    -0.254183909190E+04    0.66914E-04   -0.16456E-03  6488   0.367E-02    0.703E-02
RMM:  10    -0.254183910902E+04   -0.17112E-04   -0.40131E-04  4413   0.332E-02
  74 F= -.25418391E+04 E0= -.25418155E+04  d E =-.129269E+00  mag=   255.0000
       N       E                     dE             d eps       ncg     rms          rms(c)
DAV:   1    -0.253836848718E+04    0.34706E+01   -0.72054E+02  6720   0.240E+01    0.761E+00
RMM:   2    -0.254129141573E+04   -0.29229E+01   -0.29824E+01  7906   0.910E+00    0.704E+00
RMM:   3    -0.254204289479E+04   -0.75148E+00   -0.69574E+00  8676   0.253E+00    0.318E+00
RMM:   4    -0.254204367528E+04   -0.78048E-03   -0.90295E-01  9372   0.824E-01    0.250E+00
RMM:   5    -0.254203241385E+04    0.11261E-01   -0.28695E-01  9872   0.337E-01    0.196E+00
RMM:   6    -0.254201609646E+04    0.16317E-01   -0.17183E-01  8630   0.395E-01    0.124E+00
RMM:   7    -0.254202358208E+04   -0.74856E-02   -0.73882E-02  9578   0.219E-01    0.531E-01
RMM:   8    -0.254202124188E+04    0.23402E-02   -0.13641E-02  9601   0.106E-01    0.337E-01
RMM:   9    -0.254202075926E+04    0.48262E-03   -0.10041E-02  9746   0.706E-02    0.180E-01
RMM:  10    -0.254202084313E+04   -0.83870E-04   -0.31781E-03  8816   0.506E-02    0.939E-02
RMM:  11    -0.254202092253E+04   -0.79398E-04   -0.12864E-03  5372   0.313E-02    0.670E-02
RMM:  12    -0.254202094744E+04   -0.24912E-04   -0.47582E-04  4477   0.332E-02
  75 F= -.25420209E+04 E0= -.25419956E+04  d E =-.311107E+00  mag=   255.0000
       N       E                     dE             d eps       ncg     rms          rms(c)
DAV:   1    -0.254184441923E+04    0.17650E+00   -0.54725E+01  7120   0.675E+00    0.274E+00
RMM:   2    -0.254209499973E+04   -0.25058E+00   -0.22487E+00  7809   0.262E+00    0.191E+00
RMM:   3    -0.254217326576E+04   -0.78266E-01   -0.61523E-01  8606   0.769E-01    0.771E-01
RMM:   4    -0.254217330278E+04   -0.37012E-04   -0.74222E-02  9066   0.266E-01    0.644E-01
RMM:   5    -0.254217235041E+04    0.95236E-03   -0.22928E-02  9675   0.104E-01    0.489E-01
RMM:   6    -0.254217083742E+04    0.15130E-02   -0.12481E-02  8812   0.101E-01    0.258E-01
RMM:   7    -0.254217126463E+04   -0.42720E-03   -0.54037E-03  9199   0.627E-02    0.140E-01
RMM:   8    -0.254217120803E+04    0.56594E-04   -0.73981E-04  5298   0.291E-02
  76 F= -.25421712E+04 E0= -.25421471E+04  d E =-.150261E+00  mag=   255.0000
       N       E                     dE             d eps       ncg     rms          rms(c)
DAV:   1    -0.254190734023E+04    0.26392E+00   -0.59980E+01  6960   0.707E+00    0.286E+00
RMM:   2    -0.254218488471E+04   -0.27754E+00   -0.24991E+00  7833   0.277E+00    0.198E+00
RMM:   3    -0.254227119112E+04   -0.86306E-01   -0.67710E-01  8595   0.809E-01    0.802E-01
RMM:   4    -0.254227149007E+04   -0.29895E-03   -0.81953E-02  9127   0.277E-01    0.658E-01
RMM:   5    -0.254227005118E+04    0.14389E-02   -0.24948E-02  9658   0.110E-01    0.497E-01
RMM:   6    -0.254226865188E+04    0.13993E-02   -0.13028E-02  8890   0.102E-01    0.248E-01
RMM:   7    -0.254226909750E+04   -0.44562E-03   -0.53748E-03  9282   0.614E-02    0.135E-01
RMM:   8    -0.254226904330E+04    0.54198E-04   -0.76375E-04  5390   0.291E-02
  77 F= -.25422690E+04 E0= -.25422459E+04  d E =-.248096E+00  mag=   255.0000
       N       E                     dE             d eps       ncg     rms          rms(c)
DAV:   1    -0.254084029014E+04    0.14288E+01   -0.23982E+02  7200   0.141E+01    0.584E+00
RMM:   2    -0.254193679821E+04   -0.10965E+01   -0.98064E+00  7745   0.554E+00    0.431E+00
RMM:   3    -0.254228331818E+04   -0.34652E+00   -0.27310E+00  8532   0.165E+00    0.169E+00
RMM:   4    -0.254228552161E+04   -0.22034E-02   -0.33461E-01  9186   0.566E-01    0.138E+00
RMM:   5    -0.254227945993E+04    0.60617E-02   -0.98443E-02  9814   0.218E-01    0.105E+00
RMM:   6    -0.254227345238E+04    0.60076E-02   -0.48493E-02  8921   0.197E-01    0.535E-01
RMM:   7    -0.254227515253E+04   -0.17002E-02   -0.21605E-02  9608   0.121E-01    0.267E-01
RMM:   8    -0.254227502599E+04    0.12654E-03   -0.38010E-03  8634   0.512E-02    0.156E-01
RMM:   9    -0.254227497620E+04    0.49790E-04   -0.22134E-03  7470   0.380E-02    0.103E-01
RMM:  10    -0.254227501000E+04   -0.33799E-04   -0.79418E-04  5468   0.352E-02
  78 F= -.25422750E+04 E0= -.25422517E+04  d E =-.254063E+00  mag=   255.0000
