       N       E                     dE             d eps       ncg     rms          rms(c)
DAV:   1     0.402711924275E+05    0.40271E+05   -0.86064E+05  6720   0.262E+03
DAV:   2     0.145544783999E+05   -0.25717E+05   -0.23025E+05  6720   0.690E+02
DAV:   3     0.346232980628E+04   -0.11092E+05   -0.99572E+04  7040   0.357E+02
DAV:   4    -0.164078210830E+04   -0.51031E+04   -0.47467E+04  9680   0.199E+02
DAV:   5    -0.282075280311E+04   -0.11800E+04   -0.11447E+04 11280   0.105E+02    0.213E+02
RMM:   6    -0.250156421708E+04    0.31919E+03   -0.75285E+03  8835   0.107E+02    0.339E+02
RMM:   7    -0.257447690580E+04   -0.72913E+02   -0.18463E+03  9379   0.346E+01    0.192E+02
RMM:   8    -0.246084107092E+04    0.11364E+03   -0.12710E+03  7421   0.551E+01    0.994E+01
RMM:   9    -0.254344064164E+04   -0.82600E+02   -0.80322E+02  8727   0.191E+01    0.721E+01
RMM:  10    -0.254257705097E+04    0.86359E+00   -0.18113E+02  8457   0.136E+01    0.389E+01
RMM:  11    -0.253380000912E+04    0.87770E+01   -0.10972E+02  8850   0.920E+00    0.234E+01
RMM:  12    -0.253463701060E+04   -0.83700E+00   -0.46350E+01  9682   0.457E+00    0.207E+01
RMM:  13    -0.253467625408E+04   -0.39243E-01   -0.10765E+01 10256   0.172E+00    0.195E+01
RMM:  14    -0.253486615792E+04   -0.18990E+00   -0.81511E+00  8538   0.243E+00    0.185E+01
RMM:  15    -0.253508556116E+04   -0.21940E+00   -0.57258E+00  8943   0.205E+00    0.174E+01
RMM:  16    -0.253512800141E+04   -0.42440E-01   -0.15111E+00  9895   0.650E-01    0.170E+01
RMM:  17    -0.253467284103E+04    0.45516E+00   -0.39979E-01  8589   0.529E-01    0.158E+01
RMM:  18    -0.253358967912E+04    0.10832E+01   -0.27103E+00  8811   0.130E+00    0.123E+01
RMM:  19    -0.253325127796E+04    0.33840E+00   -0.24214E+00  9394   0.121E+00    0.895E+00
RMM:  20    -0.253321555943E+04    0.35719E-01   -0.22316E+00  9221   0.103E+00    0.471E+00
RMM:  21    -0.253321347177E+04    0.20877E-02   -0.37837E-01  8789   0.651E-01    0.384E+00
RMM:  22    -0.253324834003E+04   -0.34868E-01   -0.24336E-01  9625   0.311E-01    0.312E+00
RMM:  23    -0.253322069734E+04    0.27643E-01   -0.58105E-02  7910   0.272E-01    0.263E+00
RMM:  24    -0.253317367883E+04    0.47019E-01   -0.95093E-02  8517   0.262E-01    0.200E+00
RMM:  25    -0.253316176544E+04    0.11913E-01   -0.52051E-02  8796   0.194E-01    0.152E+00
RMM:  26    -0.253315439632E+04    0.73691E-02   -0.42076E-02  8952   0.143E-01    0.130E+00
RMM:  27    -0.253315237769E+04    0.20186E-02   -0.15090E-02  8498   0.108E-01    0.121E+00
RMM:  28    -0.253315256256E+04   -0.18487E-03   -0.40827E-03  6965   0.469E-02    0.646E-01
RMM:  29    -0.253315125940E+04    0.13032E-02   -0.36662E-03  6986   0.700E-02    0.359E-01
RMM:  30    -0.253315070631E+04    0.55309E-03   -0.53268E-03  7416   0.735E-02    0.230E-01
RMM:  31    -0.253315064491E+04    0.61399E-04   -0.25186E-03  7146   0.413E-02    0.193E-01
RMM:  32    -0.253315059121E+04    0.53700E-04   -0.12351E-03  5737   0.370E-02    0.136E-01
RMM:  33    -0.253315063501E+04   -0.43796E-04   -0.19352E-03  6866   0.423E-02    0.526E-02
RMM:  34    -0.253315068760E+04   -0.52597E-04   -0.50558E-04  4332   0.313E-02
   1 F= -.25331507E+04 E0= -.25331001E+04  d E =-.253315E+04  mag=   252.5040
       N       E                     dE             d eps       ncg     rms          rms(c)
DAV:   1    -0.253343830117E+04   -0.28767E+00   -0.39498E+02  7200   0.157E+01    0.114E+01
RMM:   2    -0.253481226486E+04   -0.13740E+01   -0.22461E+01  7654   0.640E+00    0.761E+00
RMM:   3    -0.253524044619E+04   -0.42818E+00   -0.47531E+00  8435   0.207E+00    0.474E+00
RMM:   4    -0.253521951455E+04    0.20932E-01   -0.61977E-01  8803   0.824E-01    0.380E+00
RMM:   5    -0.253519225089E+04    0.27264E-01   -0.19547E-01  8750   0.362E-01    0.293E+00
RMM:   6    -0.253518313196E+04    0.91189E-02   -0.12341E-01  7673   0.436E-01    0.297E+00
RMM:   7    -0.253518785861E+04   -0.47266E-02   -0.92248E-02  8571   0.305E-01    0.894E-01
RMM:   8    -0.253518254659E+04    0.53120E-02   -0.15962E-02  8333   0.152E-01    0.614E-01
RMM:   9    -0.253518163603E+04    0.91056E-03   -0.10535E-02  8732   0.803E-02    0.290E-01
RMM:  10    -0.253518122354E+04    0.41250E-03   -0.58275E-03  7644   0.717E-02    0.227E-01
RMM:  11    -0.253518137105E+04   -0.14751E-03   -0.19887E-03  6599   0.417E-02    0.228E-01
RMM:  12    -0.253518133448E+04    0.36565E-04   -0.62869E-04  4871   0.335E-02
   2 F= -.25351813E+04 E0= -.25351353E+04  d E =-.203065E+01  mag=   253.9363
       N       E                     dE             d eps       ncg     rms          rms(c)
DAV:   1    -0.250902712465E+04    0.26154E+02   -0.33663E+03  6400   0.455E+01    0.615E+01
RMM:   2    -0.252732340713E+04   -0.18296E+02   -0.26667E+02  7414   0.211E+01    0.199E+01
RMM:   3    -0.253015394647E+04   -0.28305E+01   -0.53985E+01  8395   0.729E+00    0.138E+01
RMM:   4    -0.252939316167E+04    0.76078E+00   -0.62716E+00  8485   0.278E+00    0.108E+01
RMM:   5    -0.252891843803E+04    0.47472E+00   -0.45435E+00  8661   0.140E+00    0.743E+00
RMM:   6    -0.252891102460E+04    0.74134E-02   -0.98620E-01  9013   0.831E-01    0.542E+00
RMM:   7    -0.252891137324E+04   -0.34865E-03   -0.35707E-01  9270   0.474E-01    0.306E+00
RMM:   8    -0.252889559060E+04    0.15783E-01   -0.28055E-01  8876   0.439E-01    0.270E+00
RMM:   9    -0.252889350786E+04    0.20827E-02   -0.94216E-02  9116   0.306E-01    0.863E-01
RMM:  10    -0.252888974751E+04    0.37603E-02   -0.35155E-02  9231   0.157E-01    0.578E-01
RMM:  11    -0.252889099837E+04   -0.12509E-02   -0.18890E-02  9740   0.750E-02    0.315E-01
RMM:  12    -0.252888990365E+04    0.10947E-02   -0.63340E-03  8320   0.661E-02    0.216E-01
RMM:  13    -0.252889036218E+04   -0.45852E-03   -0.41932E-03  7323   0.497E-02    0.172E-01
RMM:  14    -0.252889028693E+04    0.75243E-04   -0.54747E-04  4543   0.356E-02
   3 F= -.25288903E+04 E0= -.25288454E+04  d E =0.426040E+01  mag=   253.9978
       N       E                     dE             d eps       ncg     rms          rms(c)
DAV:   1    -0.252282610190E+04    0.60643E+01   -0.23039E+03  7040   0.362E+01    0.295E+01
RMM:   2    -0.253525064883E+04   -0.12425E+02   -0.20041E+02  7702   0.178E+01    0.277E+01
RMM:   3    -0.253811668288E+04   -0.28660E+01   -0.37791E+01  8600   0.546E+00    0.146E+01
RMM:   4    -0.253635824662E+04    0.17584E+01   -0.53163E+00  8668   0.248E+00    0.106E+01
RMM:   5    -0.253585009310E+04    0.50815E+00   -0.39261E+00  8608   0.164E+00    0.102E+01
RMM:   6    -0.253586336316E+04   -0.13270E-01   -0.30062E+00  8682   0.117E+00    0.492E+00
RMM:   7    -0.253582955888E+04    0.33804E-01   -0.52192E-01  8155   0.836E-01    0.311E+00
RMM:   8    -0.253576263103E+04    0.66928E-01   -0.36791E-01  8925   0.507E-01    0.238E+00
RMM:   9    -0.253575682458E+04    0.58064E-02   -0.36225E-01  9204   0.353E-01    0.124E+00
RMM:  10    -0.253575531847E+04    0.15061E-02   -0.44347E-02  8770   0.215E-01    0.942E-01
RMM:  11    -0.253574786587E+04    0.74526E-02   -0.33386E-02  8345   0.157E-01    0.579E-01
RMM:  12    -0.253574820739E+04   -0.34153E-03   -0.13532E-02  8150   0.932E-02    0.303E-01
RMM:  13    -0.253574854730E+04   -0.33991E-03   -0.42047E-03  7347   0.522E-02    0.228E-01
RMM:  14    -0.253574813226E+04    0.41505E-03   -0.99785E-04  5393   0.387E-02    0.192E-01
RMM:  15    -0.253574803201E+04    0.10024E-03   -0.16842E-03  6117   0.401E-02    0.584E-02
RMM:  16    -0.253574812904E+04   -0.97027E-04   -0.96868E-04  5259   0.357E-02
   4 F= -.25357481E+04 E0= -.25357018E+04  d E =-.259744E+01  mag=   253.9999
       N       E                     dE             d eps       ncg     rms          rms(c)
DAV:   1    -0.253564168394E+04    0.10635E+00   -0.68196E+01  6960   0.659E+00    0.506E+00
RMM:   2    -0.253582589719E+04   -0.18421E+00   -0.33852E+00  7648   0.265E+00    0.331E+00
RMM:   3    -0.253587670586E+04   -0.50809E-01   -0.69061E-01  8447   0.871E-01    0.155E+00
RMM:   4    -0.253587011928E+04    0.65866E-02   -0.11544E-01  9007   0.339E-01    0.112E+00
RMM:   5    -0.253586588244E+04    0.42368E-02   -0.30057E-02  8987   0.152E-01    0.961E-01
RMM:   6    -0.253586416759E+04    0.17149E-02   -0.12841E-02  8566   0.100E-01    0.563E-01
RMM:   7    -0.253586461310E+04   -0.44552E-03   -0.96182E-03  8510   0.838E-02    0.285E-01
RMM:   8    -0.253586448996E+04    0.12315E-03   -0.17535E-03  7149   0.454E-02    0.131E-01
RMM:   9    -0.253586435159E+04    0.13837E-03   -0.79117E-04  5389   0.352E-02    0.900E-02
RMM:  10    -0.253586437307E+04   -0.21481E-04   -0.12157E-03  6192   0.350E-02    0.699E-02
RMM:  11    -0.253586437847E+04   -0.54023E-05   -0.21915E-04  4035   0.277E-02
   5 F= -.25358644E+04 E0= -.25358179E+04  d E =-.271369E+01  mag=   254.0000
       N       E                     dE             d eps       ncg     rms          rms(c)
DAV:   1    -0.253539947699E+04    0.46490E+00   -0.22865E+02  7040   0.117E+01    0.922E+00
RMM:   2    -0.253601325104E+04   -0.61377E+00   -0.96439E+00  7443   0.432E+00    0.456E+00
RMM:   3    -0.253612848849E+04   -0.11524E+00   -0.20027E+00  8269   0.157E+00    0.293E+00
RMM:   4    -0.253611290056E+04    0.15588E-01   -0.26897E-01  9021   0.540E-01    0.198E+00
RMM:   5    -0.253609924997E+04    0.13651E-01   -0.87755E-02  9011   0.241E-01    0.152E+00
RMM:   6    -0.253609488072E+04    0.43693E-02   -0.41383E-02  8570   0.183E-01    0.110E+00
RMM:   7    -0.253609602679E+04   -0.11461E-02   -0.25118E-02  8651   0.139E-01    0.647E-01
RMM:   8    -0.253585071459E+04    0.24531E+00   -0.74401E-01  8199   0.104E+00    0.377E-01
RMM:   9    -0.253607410812E+04   -0.22339E+00   -0.34033E-01  6758   0.291E-01    0.186E-01
RMM:  10    -0.253608859790E+04   -0.14490E-01   -0.80491E-02  7532   0.168E-01    0.115E-01
RMM:  11    -0.253609246782E+04   -0.38699E-02   -0.22934E-02  4307   0.924E-02    0.613E-02
RMM:  12    -0.253609384195E+04   -0.13741E-02   -0.95729E-03  3930   0.593E-02    0.502E-02
RMM:  13    -0.253609439793E+04   -0.55598E-03   -0.43788E-03  3876   0.400E-02    0.314E-02
RMM:  14    -0.253609460359E+04   -0.20567E-03   -0.17251E-03  3853   0.303E-02    0.264E-02
RMM:  15    -0.253609465173E+04   -0.48135E-04   -0.42802E-04  3837   0.200E-02
   6 F= -.25360947E+04 E0= -.25360460E+04  d E =-.230273E+00  mag=   254.0000
       N       E                     dE             d eps       ncg     rms          rms(c)
DAV:   1    -0.253610690518E+04   -0.12302E-01   -0.20890E+01  7120   0.333E+00    0.256E+00
RMM:   2    -0.253614818841E+04   -0.41283E-01   -0.80253E-01  7572   0.123E+00    0.141E+00
RMM:   3    -0.253615793296E+04   -0.97446E-02   -0.18158E-01  8336   0.438E-01    0.917E-01
RMM:   4    -0.253615656423E+04    0.13687E-02   -0.24576E-02  8779   0.171E-01    0.564E-01
RMM:   5    -0.253615546497E+04    0.10993E-02   -0.85367E-03  7850   0.751E-02    0.450E-01
RMM:   6    -0.253615518482E+04    0.28015E-03   -0.36649E-03  7204   0.657E-02    0.334E-01
RMM:   7    -0.253615537564E+04   -0.19083E-03   -0.23425E-03  7135   0.495E-02    0.183E-01
RMM:   8    -0.253615531506E+04    0.60582E-04   -0.31987E-04  4093   0.300E-02
   7 F= -.25361553E+04 E0= -.25361071E+04  d E =-.290937E+00  mag=   254.0000
       N       E                     dE             d eps       ncg     rms          rms(c)
DAV:   1    -0.253659757216E+04   -0.44220E+00   -0.40835E+01  7440   0.684E+00    0.734E+00
RMM:   2    -0.253646042954E+04    0.13714E+00   -0.28346E+00  7559   0.306E+00    0.548E+00
RMM:   3    -0.253654542886E+04   -0.84999E-01   -0.98609E-01  8429   0.999E-01    0.217E+00
RMM:   4    -0.253652298058E+04    0.22448E-01   -0.17606E-01  8197   0.550E-01    0.163E+00
RMM:   5    -0.253651907552E+04    0.39051E-02   -0.54999E-02  8535   0.239E-01    0.101E+00
RMM:   6    -0.253651853186E+04    0.54366E-03   -0.17570E-02  8292   0.151E-01    0.694E-01
RMM:   7    -0.253651870338E+04   -0.17152E-03   -0.57309E-03  8139   0.966E-02    0.378E-01
RMM:   8    -0.253651860153E+04    0.10186E-03   -0.14541E-03  6648   0.426E-02    0.153E-01
RMM:   9    -0.253651846780E+04    0.13373E-03   -0.57637E-04  4903   0.382E-02    0.896E-02
RMM:  10    -0.253651844513E+04    0.22671E-04   -0.59541E-04  5119   0.337E-02
   8 F= -.25365184E+04 E0= -.25364692E+04  d E =-.363130E+00  mag=   254.0000
       N       E                     dE             d eps       ncg     rms          rms(c)
DAV:   1    -0.253656689965E+04   -0.48432E-01   -0.51148E+00  7200   0.242E+00    0.257E+00
RMM:   2    -0.253654938341E+04    0.17516E-01   -0.34760E-01  7563   0.108E+00    0.184E+00
RMM:   3    -0.253656026239E+04   -0.10879E-01   -0.12897E-01  8448   0.358E-01    0.718E-01
RMM:   4    -0.253655751641E+04    0.27460E-02   -0.22350E-02  8051   0.202E-01    0.534E-01
RMM:   5    -0.253655706573E+04    0.45068E-03   -0.70418E-03  8332   0.861E-02    0.304E-01
RMM:   6    -0.253655697176E+04    0.93977E-04   -0.22345E-03  7100   0.593E-02    0.220E-01
RMM:   7    -0.253655695418E+04    0.17578E-04   -0.49352E-04  4707   0.379E-02
   9 F= -.25365570E+04 E0= -.25365075E+04  d E =-.401639E+00  mag=   254.0000
       N       E                     dE             d eps       ncg     rms          rms(c)
DAV:   1    -0.253656013860E+04   -0.31668E-02   -0.46939E-01  7440   0.737E-01    0.793E-01
RMM:   2    -0.253655873928E+04    0.13993E-02   -0.33909E-02  7604   0.330E-01    0.572E-01
RMM:   3    -0.253655989063E+04   -0.11513E-02   -0.12306E-02  8407   0.109E-01    0.219E-01
RMM:   4    -0.253655964233E+04    0.24830E-03   -0.20657E-03  7172   0.649E-02    0.168E-01
RMM:   5    -0.253655957291E+04    0.69420E-04   -0.52956E-04  4794   0.350E-02
  10 F= -.25365596E+04 E0= -.25365102E+04  d E =-.404258E+00  mag=   254.0000
       N       E                     dE             d eps       ncg     rms          rms(c)
DAV:   1    -0.253655244771E+04    0.71946E-02   -0.33472E+00  7360   0.154E+00    0.172E+00
RMM:   2    -0.253657980220E+04   -0.27354E-01   -0.16379E-01  7498   0.739E-01    0.106E+00
RMM:   3    -0.253659219438E+04   -0.12392E-01   -0.65698E-02  8501   0.233E-01    0.322E-01
RMM:   4    -0.253659177775E+04    0.41662E-03   -0.69682E-03  8082   0.117E-01    0.319E-01
RMM:   5    -0.253659167663E+04    0.10112E-03   -0.19469E-03  6750   0.430E-02    0.219E-01
RMM:   6    -0.253659149313E+04    0.18351E-03   -0.50823E-04  4685   0.388E-02    0.142E-01
RMM:   7    -0.253659149306E+04    0.62690E-07   -0.79729E-04  5424   0.328E-02
  11 F= -.25365915E+04 E0= -.25365420E+04  d E =-.319202E-01  mag=   254.0000
       N       E                     dE             d eps       ncg     rms          rms(c)
DAV:   1    -0.253634949338E+04    0.24200E+00   -0.22290E+01  6880   0.397E+00    0.442E+00
RMM:   2    -0.253653453229E+04   -0.18504E+00   -0.10771E+00  7505   0.190E+00    0.261E+00
RMM:   3    -0.253661782672E+04   -0.83294E-01   -0.43116E-01  8543   0.598E-01    0.819E-01
RMM:   4    -0.253661511065E+04    0.27161E-02   -0.44560E-02  8383   0.293E-01    0.855E-01
RMM:   5    -0.253661484697E+04    0.26368E-03   -0.14832E-02  9162   0.101E-01    0.561E-01
RMM:   6    -0.253661349745E+04    0.13495E-02   -0.43033E-03  7874   0.763E-02    0.342E-01
RMM:   7    -0.253661339807E+04    0.99380E-04   -0.41683E-03  8237   0.626E-02    0.222E-01
RMM:   8    -0.253661348718E+04   -0.89105E-04   -0.77246E-04  5425   0.364E-02
  12 F= -.25366135E+04 E0= -.25365641E+04  d E =-.539143E-01  mag=   254.0000
       N       E                     dE             d eps       ncg     rms          rms(c)
DAV:   1    -0.253660834504E+04    0.50530E-02   -0.70302E-01  7520   0.708E-01    0.790E-01
RMM:   2    -0.253661399451E+04   -0.56495E-02   -0.32981E-02  7505   0.332E-01    0.529E-01
RMM:   3    -0.253661631908E+04   -0.23246E-02   -0.12137E-02  8267   0.102E-01    0.159E-01
RMM:   4    -0.253661616453E+04    0.15455E-03   -0.11793E-03  5690   0.571E-02    0.131E-01
RMM:   5    -0.253661610054E+04    0.63995E-04   -0.31582E-04  4170   0.287E-02
  13 F= -.25366161E+04 E0= -.25365667E+04  d E =-.565276E-01  mag=   254.0000
       N       E                     dE             d eps       ncg     rms          rms(c)
DAV:   1    -0.253659824798E+04    0.17917E-01   -0.58004E+00  6960   0.215E+00    0.146E+00
RMM:   2    -0.253662434477E+04   -0.26097E-01   -0.26639E-01  7634   0.888E-01    0.991E-01
RMM:   3    -0.253663531175E+04   -0.10967E-01   -0.78150E-02  8551   0.281E-01    0.401E-01
RMM:   4    -0.253663478570E+04    0.52605E-03   -0.78285E-03  8555   0.113E-01    0.416E-01
RMM:   5    -0.253663463373E+04    0.15198E-03   -0.23054E-03  7432   0.440E-02    0.277E-01
RMM:   6    -0.253663421312E+04    0.42061E-03   -0.11774E-03  6224   0.474E-02    0.181E-01
RMM:   7    -0.253663416431E+04    0.48811E-04   -0.14684E-03  6683   0.411E-02    0.112E-01
RMM:   8    -0.253663415681E+04    0.75062E-05   -0.21234E-04  3910   0.266E-02
  14 F= -.25366342E+04 E0= -.25365850E+04  d E =-.180563E-01  mag=   254.0000
       N       E                     dE             d eps       ncg     rms          rms(c)
DAV:   1    -0.253655402026E+04    0.80144E-01   -0.14126E+01  6800   0.336E+00    0.229E+00
RMM:   2    -0.253661887170E+04   -0.64851E-01   -0.66183E-01  7657   0.138E+00    0.154E+00
RMM:   3    -0.253664547953E+04   -0.26608E-01   -0.18962E-01  8617   0.436E-01    0.618E-01
RMM:   4    -0.253664429078E+04    0.11887E-02   -0.19749E-02  8965   0.171E-01    0.633E-01
RMM:   5    -0.253664401363E+04    0.27715E-03   -0.64923E-03  9105   0.646E-02    0.423E-01
RMM:   6    -0.253664305354E+04    0.96010E-03   -0.31694E-03  7638   0.656E-02    0.276E-01
RMM:   7    -0.253664293905E+04    0.11449E-03   -0.28197E-03  8001   0.515E-02    0.154E-01
RMM:   8    -0.253664291593E+04    0.23119E-04   -0.37048E-04  4421   0.290E-02
  15 F= -.25366429E+04 E0= -.25365943E+04  d E =-.268154E-01  mag=   254.0000
       N       E                     dE             d eps       ncg     rms          rms(c)
DAV:   1    -0.253661849218E+04    0.24447E-01   -0.90355E+00  6960   0.270E+00    0.121E+00
RMM:   2    -0.253664801375E+04   -0.29522E-01   -0.40722E-01  7769   0.104E+00    0.904E-01
RMM:   3    -0.253665782258E+04   -0.98088E-02   -0.95633E-02  8835   0.313E-01    0.425E-01
RMM:   4    -0.253665707308E+04    0.74950E-03   -0.93197E-03  8862   0.115E-01    0.413E-01
RMM:   5    -0.253665690226E+04    0.17082E-03   -0.33262E-03  8467   0.512E-02    0.292E-01
RMM:   6    -0.253665657182E+04    0.33045E-03   -0.21166E-03  7425   0.535E-02    0.220E-01
RMM:   7    -0.253665662760E+04   -0.55779E-04   -0.14793E-03  7068   0.407E-02    0.883E-02
RMM:   8    -0.253665664240E+04   -0.14806E-04   -0.25998E-04  4109   0.268E-02
  16 F= -.25366566E+04 E0= -.25366085E+04  d E =-.137265E-01  mag=   254.0000
       N       E                     dE             d eps       ncg     rms          rms(c)
DAV:   1    -0.253663934485E+04    0.17283E-01   -0.42212E+00  6960   0.184E+00    0.823E-01
RMM:   2    -0.253665344579E+04   -0.14101E-01   -0.19198E-01  7770   0.707E-01    0.602E-01
RMM:   3    -0.253665812053E+04   -0.46747E-02   -0.44988E-02  8863   0.214E-01    0.293E-01
RMM:   4    -0.253665783166E+04    0.28887E-03   -0.44969E-03  8477   0.792E-02    0.281E-01
RMM:   5    -0.253665774884E+04    0.82813E-04   -0.13947E-03  6778   0.376E-02    0.198E-01
RMM:   6    -0.253665761035E+04    0.13850E-03   -0.89287E-04  5737   0.404E-02    0.155E-01
RMM:   7    -0.253665765859E+04   -0.48241E-04   -0.90115E-04  5898   0.355E-02
  17 F= -.25366577E+04 E0= -.25366099E+04  d E =-.147427E-01  mag=   254.0000
       N       E                     dE             d eps       ncg     rms          rms(c)
DAV:   1    -0.253665306678E+04    0.45436E-02   -0.14850E+00  6800   0.109E+00    0.450E-01
RMM:   2    -0.253666030767E+04   -0.72409E-02   -0.68782E-02  8030   0.427E-01    0.343E-01
RMM:   3    -0.253666243208E+04   -0.21244E-02   -0.17564E-02  8865   0.124E-01    0.159E-01
RMM:   4    -0.253666239347E+04    0.38609E-04   -0.19060E-03  7256   0.444E-02    0.109E-01
RMM:   5    -0.253666231352E+04    0.79943E-04   -0.38662E-04  4403   0.288E-02
  18 F= -.25366623E+04 E0= -.25366144E+04  d E =-.465494E-02  mag=   254.0000
       N       E                     dE             d eps       ncg     rms          rms(c)
DAV:   1    -0.253665042428E+04    0.11969E-01   -0.24530E+00  6800   0.139E+00    0.556E-01
RMM:   2    -0.253666227344E+04   -0.11849E-01   -0.11184E-01  8037   0.538E-01    0.406E-01
RMM:   3    -0.253666567236E+04   -0.33989E-02   -0.28347E-02  9008   0.154E-01    0.212E-01
RMM:   4    -0.253666558011E+04    0.92254E-04   -0.33884E-03  8303   0.564E-02    0.159E-01
RMM:   5    -0.253666545810E+04    0.12201E-03   -0.82683E-04  5687   0.357E-02    0.180E-01
RMM:   6    -0.253666538244E+04    0.75662E-04   -0.45041E-04  4667   0.295E-02
  19 F= -.25366654E+04 E0= -.25366176E+04  d E =-.772385E-02  mag=   254.0000
       N       E                     dE             d eps       ncg     rms          rms(c)
DAV:   1    -0.253665554426E+04    0.99138E-02   -0.25012E+00  6560   0.140E+00    0.706E-01
RMM:   2    -0.253666643518E+04   -0.10891E-01   -0.12090E-01  7940   0.543E-01    0.477E-01
RMM:   3    -0.253666938055E+04   -0.29454E-02   -0.25543E-02  8759   0.157E-01    0.219E-01
RMM:   4    -0.253666912999E+04    0.25056E-03   -0.26680E-03  7839   0.594E-02    0.197E-01
RMM:   5    -0.253666900957E+04    0.12042E-03   -0.71720E-04  5234   0.334E-02    0.158E-01
RMM:   6    -0.253666888568E+04    0.12389E-03   -0.72710E-04  5184   0.319E-02    0.942E-02
RMM:   7    -0.253666890057E+04   -0.14885E-04   -0.61179E-04  4958   0.315E-02
  20 F= -.25366689E+04 E0= -.25366214E+04  d E =-.351813E-02  mag=   254.0000
       N       E                     dE             d eps       ncg     rms          rms(c)
DAV:   1    -0.253666453263E+04    0.43531E-02   -0.74057E-01  6880   0.761E-01    0.391E-01
RMM:   2    -0.253666784671E+04   -0.33141E-02   -0.36810E-02  7990   0.299E-01    0.252E-01
RMM:   3    -0.253666878150E+04   -0.93479E-03   -0.79580E-03  8687   0.863E-02    0.119E-01
RMM:   4    -0.253666868883E+04    0.92666E-04   -0.55668E-04  4850   0.354E-02
  21 F= -.25366687E+04 E0= -.25366213E+04  d E =-.330639E-02  mag=   254.0000
       N       E                     dE             d eps       ncg     rms          rms(c)
DAV:   1    -0.253666189479E+04    0.68867E-02   -0.15625E+00  6960   0.106E+00    0.925E-01
RMM:   2    -0.253666674400E+04   -0.48492E-02   -0.91136E-02  7570   0.497E-01    0.625E-01
RMM:   3    -0.253666938334E+04   -0.26393E-02   -0.25099E-02  8529   0.157E-01    0.237E-01
RMM:   4    -0.253666911947E+04    0.26387E-03   -0.27092E-03  7273   0.671E-02    0.205E-01
RMM:   5    -0.253666899196E+04    0.12751E-03   -0.71073E-04  4829   0.310E-02    0.145E-01
RMM:   6    -0.253666895628E+04    0.35687E-04   -0.60325E-04  4856   0.315E-02
  22 F= -.25366690E+04 E0= -.25366220E+04  d E =-.267444E-03  mag=   254.0000
       N       E                     dE             d eps       ncg     rms          rms(c)
DAV:   1    -0.253666807775E+04    0.91422E-03   -0.46035E-01  7280   0.580E-01    0.509E-01
RMM:   2    -0.253666954232E+04   -0.14646E-02   -0.25839E-02  7541   0.268E-01    0.376E-01
RMM:   3    -0.253667020621E+04   -0.66389E-03   -0.66193E-03  8222   0.843E-02    0.157E-01
RMM:   4    -0.253667006898E+04    0.13723E-03   -0.55616E-04  4660   0.365E-02    0.120E-01
RMM:   5    -0.253667000729E+04    0.61690E-04   -0.25031E-04  3907   0.240E-02
  23 F= -.25366700E+04 E0= -.25366229E+04  d E =-.131846E-02  mag=   254.0000
