       N       E                     dE             d eps       ncg     rms          rms(c)
DAV:   1     0.399929009187E+05    0.39993E+05   -0.85693E+05  6880   0.260E+03
DAV:   2     0.143768908006E+05   -0.25616E+05   -0.22884E+05  6720   0.688E+02
DAV:   3     0.339030128811E+04   -0.10987E+05   -0.98019E+04  6960   0.352E+02
DAV:   4    -0.161759106537E+04   -0.50079E+04   -0.46428E+04  9680   0.196E+02
DAV:   5    -0.278192563406E+04   -0.11643E+04   -0.11270E+04 11040   0.104E+02    0.206E+02
RMM:   6    -0.248510166058E+04    0.29682E+03   -0.68092E+03  8753   0.101E+02    0.324E+02
RMM:   7    -0.254831546113E+04   -0.63214E+02   -0.16348E+03  9314   0.329E+01    0.185E+02
RMM:   8    -0.245111312307E+04    0.97202E+02   -0.10395E+03  7276   0.511E+01    0.961E+01
RMM:   9    -0.251843505640E+04   -0.67322E+02   -0.66105E+02  8669   0.172E+01    0.701E+01
RMM:  10    -0.251931385497E+04   -0.87880E+00   -0.16038E+02  8416   0.126E+01    0.380E+01
RMM:  11    -0.251341838245E+04    0.58955E+01   -0.91304E+01  9013   0.817E+00    0.271E+01
RMM:  12    -0.251430401425E+04   -0.88563E+00   -0.41877E+01 10016   0.411E+00    0.220E+01
RMM:  13    -0.251374757861E+04    0.55644E+00   -0.89901E+00 10013   0.197E+00    0.209E+01
RMM:  14    -0.251381831389E+04   -0.70735E-01   -0.54387E+00  8908   0.176E+00    0.166E+01
RMM:  15    -0.251380551723E+04    0.12797E-01   -0.19240E+00  9732   0.101E+00    0.130E+01
RMM:  16    -0.251340525513E+04    0.40026E+00   -0.10681E+00  9425   0.794E-01    0.105E+01
RMM:  17    -0.251309595419E+04    0.30930E+00   -0.19467E+00  9205   0.118E+00    0.620E+00
RMM:  18    -0.251309711675E+04   -0.11626E-02   -0.11386E+00  9772   0.801E-01    0.416E+00
RMM:  19    -0.251309371222E+04    0.34045E-02   -0.19640E-01  8923   0.373E-01    0.320E+00
RMM:  20    -0.251310972048E+04   -0.16008E-01   -0.93200E-02  9515   0.200E-01    0.251E+00
RMM:  21    -0.251311712065E+04   -0.74002E-02   -0.54666E-02  8703   0.216E-01    0.151E+00
RMM:  22    -0.251311142948E+04    0.56912E-02   -0.36988E-02  8041   0.172E-01    0.879E-01
RMM:  23    -0.251310896481E+04    0.24647E-02   -0.34349E-02  8548   0.150E-01    0.438E-01
RMM:  24    -0.251310997959E+04   -0.10148E-02   -0.27482E-02  8402   0.127E-01    0.204E-01
RMM:  25    -0.251311139423E+04   -0.14146E-02   -0.15604E-02  8135   0.885E-02    0.141E-01
RMM:  26    -0.251311196466E+04   -0.57044E-03   -0.95557E-03  5506   0.574E-02    0.117E-01
RMM:  27    -0.251311233706E+04   -0.37239E-03   -0.59010E-03  6345   0.589E-02    0.529E-02
RMM:  28    -0.251311281730E+04   -0.48025E-03   -0.50957E-03  5833   0.475E-02    0.418E-02
RMM:  29    -0.251311307608E+04   -0.25878E-03   -0.24363E-03  4741   0.440E-02    0.433E-02
RMM:  30    -0.251311330520E+04   -0.22911E-03   -0.24045E-03  4409   0.357E-02    0.355E-02
RMM:  31    -0.251311342977E+04   -0.12458E-03   -0.14351E-03  4440   0.275E-02    0.229E-02
RMM:  32    -0.251311357021E+04   -0.14043E-03   -0.14502E-03  4404   0.231E-02    0.181E-02
RMM:  33    -0.251311365791E+04   -0.87700E-04   -0.85417E-04  4402   0.227E-02
   1 F= -.25131137E+04 E0= -.25130927E+04  d E =-.251311E+04  mag=   234.8603
       N       E                     dE             d eps       ncg     rms          rms(c)
DAV:   1    -0.250863326575E+04    0.44803E+01   -0.16199E+03  6400   0.328E+01    0.194E+01
RMM:   2    -0.251703259931E+04   -0.83993E+01   -0.90694E+01  7582   0.140E+01    0.140E+01
RMM:   3    -0.251945443734E+04   -0.24218E+01   -0.22303E+01  8488   0.449E+00    0.570E+00
RMM:   4    -0.251941940040E+04    0.35037E-01   -0.26677E+00  8088   0.198E+00    0.754E+00
RMM:   5    -0.251945179078E+04   -0.32390E-01   -0.85670E-01 10189   0.623E-01    0.541E+00
RMM:   6    -0.251938142146E+04    0.70369E-01   -0.19920E-01  9117   0.393E-01    0.411E+00
RMM:   7    -0.251933007894E+04    0.51343E-01   -0.41170E-01  8611   0.567E-01    0.173E+00
RMM:   8    -0.251934770335E+04   -0.17624E-01   -0.15823E-01  9445   0.325E-01    0.915E-01
RMM:   9    -0.251933989060E+04    0.78128E-02   -0.22113E-02  8172   0.170E-01    0.765E-01
RMM:  10    -0.251933680864E+04    0.30820E-02   -0.19905E-02  8958   0.121E-01    0.403E-01
RMM:  11    -0.251933728809E+04   -0.47944E-03   -0.90521E-03  9016   0.721E-02    0.208E-01
RMM:  12    -0.251933741760E+04   -0.12951E-03   -0.13735E-03  6597   0.364E-02    0.141E-01
RMM:  13    -0.251933752939E+04   -0.11179E-03   -0.57091E-04  4905   0.304E-02    0.956E-02
RMM:  14    -0.251933771478E+04   -0.18539E-03   -0.78556E-04  5492   0.320E-02    0.618E-02
RMM:  15    -0.251933775442E+04   -0.39638E-04   -0.16083E-04  3872   0.250E-02
   2 F= -.25193378E+04 E0= -.25193223E+04  d E =-.622410E+01  mag=   239.5321
       N       E                     dE             d eps       ncg     rms          rms(c)
DAV:   1    -0.236802376609E+04    0.15131E+03   -0.13878E+04  6880   0.965E+01    0.124E+02
RMM:   2    -0.248379325523E+04   -0.11577E+03   -0.12072E+03  7607   0.445E+01    0.435E+01
RMM:   3    -0.250262046664E+04   -0.18827E+02   -0.23213E+02  8550   0.139E+01    0.300E+01
RMM:   4    -0.249776586191E+04    0.48546E+01   -0.25561E+01  8267   0.629E+00    0.224E+01
RMM:   5    -0.249543897214E+04    0.23269E+01   -0.14025E+01  8926   0.294E+00    0.159E+01
RMM:   6    -0.249445825074E+04    0.98072E+00   -0.11111E+01  9042   0.237E+00    0.935E+00
RMM:   7    -0.249450479722E+04   -0.46546E-01   -0.24906E+00  9825   0.126E+00    0.695E+00
RMM:   8    -0.249445196036E+04    0.52837E-01   -0.80370E-01  9598   0.666E-01    0.459E+00
RMM:   9    -0.249450711163E+04   -0.55151E-01   -0.53847E-01  9384   0.649E-01    0.407E+00
RMM:  10    -0.249450286102E+04    0.42506E-02   -0.22067E-01 10000   0.322E-01    0.194E+00
RMM:  11    -0.249446677156E+04    0.36089E-01   -0.18458E-01  8999   0.362E-01    0.138E+00
RMM:  12    -0.249447672525E+04   -0.99537E-02   -0.15372E-01 10419   0.246E-01    0.862E-01
RMM:  13    -0.249446954384E+04    0.71814E-02   -0.18169E-02  9008   0.120E-01    0.544E-01
RMM:  14    -0.249446543958E+04    0.41043E-02   -0.26006E-02  8754   0.119E-01    0.248E-01
RMM:  15    -0.249446637165E+04   -0.93207E-03   -0.14755E-02  8263   0.900E-02    0.196E-01
RMM:  16    -0.249446611241E+04    0.25925E-03   -0.15454E-03  5737   0.434E-02    0.133E-01
RMM:  17    -0.249446613124E+04   -0.18833E-04   -0.99273E-04  5265   0.349E-02
   3 F= -.24944661E+04 E0= -.24944438E+04  d E =0.186475E+02  mag=   243.9440
       N       E                     dE             d eps       ncg     rms          rms(c)
DAV:   1    -0.242056625257E+04    0.73900E+02   -0.10415E+04  6880   0.863E+01    0.536E+01
RMM:   2    -0.251210815180E+04   -0.91542E+02   -0.11467E+03  7931   0.434E+01    0.526E+01
RMM:   3    -0.253381481306E+04   -0.21707E+02   -0.25179E+02  9047   0.131E+01    0.371E+01
RMM:   4    -0.252611857189E+04    0.76962E+01   -0.29852E+01  8708   0.527E+00    0.304E+01
RMM:   5    -0.252119265402E+04    0.49259E+01   -0.28745E+01  9046   0.402E+00    0.252E+01
RMM:   6    -0.252264914104E+04   -0.14565E+01   -0.41217E+01  9046   0.397E+00    0.149E+01
RMM:   7    -0.252268721174E+04   -0.38071E-01   -0.60311E+00  8365   0.299E+00    0.103E+01
RMM:   8    -0.252133349844E+04    0.13537E+01   -0.41313E+00  9002   0.153E+00    0.560E+00
RMM:   9    -0.252112942768E+04    0.20407E+00   -0.63992E+00  8944   0.154E+00    0.323E+00
RMM:  10    -0.252106930571E+04    0.60122E-01   -0.55133E-01  8643   0.781E-01    0.220E+00
RMM:  11    -0.252105940307E+04    0.99026E-02   -0.56032E-01  8650   0.552E-01    0.136E+00
RMM:  12    -0.252107606227E+04   -0.16659E-01   -0.17006E-01 10225   0.270E-01    0.131E+00
RMM:  13    -0.252106592965E+04    0.10133E-01   -0.53726E-02  8969   0.142E-01    0.718E-01
RMM:  14    -0.252106719518E+04   -0.12655E-02   -0.85381E-02  8947   0.184E-01    0.547E-01
RMM:  15    -0.252106959676E+04   -0.24016E-02   -0.24643E-02  8989   0.104E-01    0.390E-01
RMM:  16    -0.252106826081E+04    0.13359E-02   -0.80231E-03  7424   0.677E-02    0.196E-01
RMM:  17    -0.252106843717E+04   -0.17637E-03   -0.38327E-03  6704   0.399E-02    0.120E-01
RMM:  18    -0.252106859854E+04   -0.16137E-03   -0.22960E-03  6208   0.412E-02    0.672E-02
RMM:  19    -0.252106872287E+04   -0.12433E-03   -0.91917E-04  4410   0.294E-02    0.544E-02
RMM:  20    -0.252106876819E+04   -0.45318E-04   -0.43142E-04  3906   0.278E-02
   4 F= -.25210688E+04 E0= -.25210495E+04  d E =-.795511E+01  mag=   240.2328
       N       E                     dE             d eps       ncg     rms          rms(c)
DAV:   1    -0.251140595768E+04    0.96628E+01   -0.16975E+03  6080   0.334E+01    0.242E+01
RMM:   2    -0.252087098346E+04   -0.94650E+01   -0.98312E+01  7817   0.140E+01    0.115E+01
RMM:   3    -0.252296084677E+04   -0.20899E+01   -0.19473E+01  8543   0.421E+00    0.667E+00
RMM:   4    -0.252289840721E+04    0.62440E-01   -0.24069E+00  8613   0.164E+00    0.549E+00
RMM:   5    -0.252282389015E+04    0.74517E-01   -0.78636E-01  9596   0.624E-01    0.416E+00
RMM:   6    -0.252274064240E+04    0.83248E-01   -0.43004E-01  8965   0.575E-01    0.251E+00
RMM:   7    -0.252275448907E+04   -0.13847E-01   -0.26580E-01  9018   0.401E-01    0.113E+00
RMM:   8    -0.252275149710E+04    0.29920E-02   -0.41804E-02  8902   0.226E-01    0.663E-01
RMM:   9    -0.252274988260E+04    0.16145E-02   -0.29023E-02  9127   0.143E-01    0.472E-01
RMM:  10    -0.252275053591E+04   -0.65332E-03   -0.10848E-02 10103   0.683E-02    0.253E-01
RMM:  11    -0.252275062845E+04   -0.92537E-04   -0.29709E-03  8265   0.417E-02    0.150E-01
RMM:  12    -0.252275074234E+04   -0.11389E-03   -0.93344E-04  5568   0.345E-02    0.858E-02
RMM:  13    -0.252275082061E+04   -0.78277E-04   -0.43661E-04  4419   0.305E-02
   5 F= -.25227508E+04 E0= -.25227339E+04  d E =-.963716E+01  mag=   243.8761
       N       E                     dE             d eps       ncg     rms          rms(c)
DAV:   1    -0.252165340722E+04    0.10973E+01   -0.19834E+02  6560   0.116E+01    0.791E+00
RMM:   2    -0.252274704190E+04   -0.10936E+01   -0.11548E+01  7822   0.477E+00    0.410E+00
RMM:   3    -0.252299377242E+04   -0.24673E+00   -0.22668E+00  8779   0.140E+00    0.187E+00
RMM:   4    -0.252296979960E+04    0.23973E-01   -0.24980E-01  8715   0.531E-01    0.244E+00
RMM:   5    -0.252296904818E+04    0.75142E-03   -0.95105E-02  9952   0.209E-01    0.166E+00
RMM:   6    -0.252295977211E+04    0.92761E-02   -0.43923E-02  8792   0.191E-01    0.969E-01
RMM:   7    -0.252296050124E+04   -0.72913E-03   -0.30116E-02  8959   0.131E-01    0.353E-01
RMM:   8    -0.252296090229E+04   -0.40105E-03   -0.50427E-03  8171   0.737E-02    0.251E-01
RMM:   9    -0.252296107735E+04   -0.17506E-03   -0.22774E-03  7305   0.436E-02    0.245E-01
RMM:  10    -0.252296114315E+04   -0.65794E-04   -0.76626E-04  5044   0.304E-02
   6 F= -.25229611E+04 E0= -.25229413E+04  d E =-.984749E+01  mag=   242.2995
       N       E                     dE             d eps       ncg     rms          rms(c)
DAV:   1    -0.251850954010E+04    0.44515E+01   -0.14092E+03  6320   0.324E+01    0.217E+01
RMM:   2    -0.252418735268E+04   -0.56778E+01   -0.75155E+01  7611   0.134E+01    0.130E+01
RMM:   3    -0.252583206871E+04   -0.16447E+01   -0.17001E+01  8522   0.423E+00    0.673E+00
RMM:   4    -0.252567206408E+04    0.16000E+00   -0.20718E+00  9101   0.158E+00    0.558E+00
RMM:   5    -0.252554482999E+04    0.12723E+00   -0.97395E-01  8674   0.820E-01    0.380E+00
RMM:   6    -0.252555551717E+04   -0.10687E-01   -0.40561E-01  9108   0.557E-01    0.176E+00
RMM:   7    -0.252556468275E+04   -0.91656E-02   -0.10909E-01  9915   0.262E-01    0.892E-01
RMM:   8    -0.252555573866E+04    0.89441E-02   -0.36966E-02  9259   0.163E-01    0.612E-01
RMM:   9    -0.252555398773E+04    0.17509E-02   -0.27601E-02  9322   0.122E-01    0.317E-01
RMM:  10    -0.252555402029E+04   -0.32558E-04   -0.66445E-03  9401   0.666E-02    0.231E-01
RMM:  11    -0.252555409518E+04   -0.74889E-04   -0.22431E-03  7721   0.399E-02    0.142E-01
RMM:  12    -0.252555413241E+04   -0.37233E-04   -0.53726E-04  4834   0.344E-02
   7 F= -.25255541E+04 E0= -.25255378E+04  d E =-.259299E+01  mag=   243.9214
       N       E                     dE             d eps       ncg     rms          rms(c)
DAV:   1    -0.252554449572E+04    0.95995E-02   -0.73777E+00  7040   0.230E+00    0.147E+00
RMM:   2    -0.252556864489E+04   -0.24149E-01   -0.37728E-01  7704   0.923E-01    0.821E-01
RMM:   3    -0.252557629517E+04   -0.76503E-02   -0.87874E-02  8555   0.295E-01    0.434E-01
RMM:   4    -0.252557524203E+04    0.10531E-02   -0.94542E-03  8329   0.113E-01    0.339E-01
RMM:   5    -0.252557476309E+04    0.47894E-03   -0.56035E-03  7763   0.654E-02    0.309E-01
RMM:   6    -0.252557488234E+04   -0.11925E-03   -0.23759E-03  7488   0.393E-02    0.130E-01
RMM:   7    -0.252557490969E+04   -0.27347E-04   -0.43841E-04  4351   0.324E-02
   8 F= -.25255749E+04 E0= -.25255586E+04  d E =-.261377E+01  mag=   243.9873
       N       E                     dE             d eps       ncg     rms          rms(c)
DAV:   1    -0.252401528692E+04    0.15596E+01   -0.33571E+02  6720   0.162E+01    0.135E+01
RMM:   2    -0.252603367682E+04   -0.20184E+01   -0.20005E+01  7579   0.738E+00    0.884E+00
RMM:   3    -0.252688253535E+04   -0.84886E+00   -0.63147E+00  8783   0.236E+00    0.367E+00
RMM:   4    -0.252682957883E+04    0.52957E-01   -0.73942E-01  8818   0.101E+00    0.373E+00
RMM:   5    -0.252682018232E+04    0.93965E-02   -0.24969E-01  9826   0.358E-01    0.254E+00
RMM:   6    -0.252679369330E+04    0.26489E-01   -0.12142E-01  8510   0.342E-01    0.108E+00
RMM:   7    -0.252679579422E+04   -0.21009E-02   -0.59705E-02  9257   0.227E-01    0.841E-01
RMM:   8    -0.252679564006E+04    0.15416E-03   -0.11252E-02  9689   0.871E-02    0.326E-01
RMM:   9    -0.252679479393E+04    0.84613E-03   -0.56695E-03  8859   0.673E-02    0.169E-01
RMM:  10    -0.252679471277E+04    0.81164E-04   -0.30004E-03  8618   0.415E-02    0.124E-01
RMM:  11    -0.252679469399E+04    0.18777E-04   -0.48237E-04  4635   0.264E-02
   9 F= -.25267947E+04 E0= -.25267785E+04  d E =-.121978E+01  mag=   243.9992
       N       E                     dE             d eps       ncg     rms          rms(c)
DAV:   1    -0.252679315347E+04    0.15593E-02   -0.70809E-01  8000   0.741E-01    0.621E-01
RMM:   2    -0.252679702735E+04   -0.38739E-02   -0.39745E-02  7580   0.322E-01    0.383E-01
RMM:   3    -0.252679877830E+04   -0.17510E-02   -0.13120E-02  8489   0.107E-01    0.147E-01
RMM:   4    -0.252679866840E+04    0.10990E-03   -0.15829E-03  6197   0.540E-02    0.139E-01
RMM:   5    -0.252679863885E+04    0.29549E-04   -0.44321E-04  4567   0.270E-02
  10 F= -.25267986E+04 E0= -.25267824E+04  d E =-.122373E+01  mag=   243.9997
       N       E                     dE             d eps       ncg     rms          rms(c)
DAV:   1    -0.252640207173E+04    0.39660E+00   -0.14574E+02  6560   0.107E+01    0.737E+00
RMM:   2    -0.252712698246E+04   -0.72491E+00   -0.71811E+00  7545   0.458E+00    0.434E+00
RMM:   3    -0.252744087257E+04   -0.31389E+00   -0.23422E+00  8604   0.150E+00    0.162E+00
RMM:   4    -0.252743077933E+04    0.10093E-01   -0.27231E-01  9340   0.543E-01    0.159E+00
RMM:   5    -0.252742424263E+04    0.65367E-02   -0.77420E-02 10093   0.179E-01    0.112E+00
RMM:   6    -0.252741297855E+04    0.11264E-01   -0.42141E-02  8687   0.185E-01    0.601E-01
RMM:   7    -0.252741305771E+04   -0.79162E-04   -0.27465E-02  9059   0.135E-01    0.351E-01
RMM:   8    -0.252741330322E+04   -0.24550E-03   -0.62640E-03  8994   0.606E-02    0.186E-01
RMM:   9    -0.252741301265E+04    0.29057E-03   -0.20194E-03  7614   0.426E-02    0.112E-01
RMM:  10    -0.252741299263E+04    0.20017E-04   -0.48277E-04  4637   0.295E-02
  11 F= -.25274130E+04 E0= -.25273957E+04  d E =-.614354E+00  mag=   244.0000
       N       E                     dE             d eps       ncg     rms          rms(c)
DAV:   1    -0.252697473439E+04    0.43828E+00   -0.90581E+01  6800   0.842E+00    0.584E+00
RMM:   2    -0.252742400039E+04   -0.44927E+00   -0.44158E+00  7514   0.364E+00    0.352E+00
RMM:   3    -0.252762394473E+04   -0.19994E+00   -0.14997E+00  8594   0.121E+00    0.130E+00
RMM:   4    -0.252761814587E+04    0.57989E-02   -0.17661E-01  9313   0.436E-01    0.126E+00
RMM:   5    -0.252761390217E+04    0.42437E-02   -0.49662E-02 10052   0.145E-01    0.886E-01
RMM:   6    -0.252760696630E+04    0.69359E-02   -0.26761E-02  8797   0.144E-01    0.471E-01
RMM:   7    -0.252760708674E+04   -0.12044E-03   -0.18208E-02  9075   0.111E-01    0.284E-01
RMM:   8    -0.252760722353E+04   -0.13679E-03   -0.39021E-03  8224   0.480E-02    0.146E-01
RMM:   9    -0.252760702141E+04    0.20212E-03   -0.10657E-03  6098   0.353E-02    0.906E-02
RMM:  10    -0.252760702173E+04   -0.32276E-06   -0.43978E-04  4494   0.285E-02
  12 F= -.25276070E+04 E0= -.25275890E+04  d E =-.808383E+00  mag=   244.0000
       N       E                     dE             d eps       ncg     rms          rms(c)
DAV:   1    -0.252695846332E+04    0.64856E+00   -0.20269E+02  6320   0.123E+01    0.510E+00
RMM:   2    -0.252797988899E+04   -0.10214E+01   -0.93757E+00  7991   0.468E+00    0.280E+00
RMM:   3    -0.252826706124E+04   -0.28717E+00   -0.24015E+00  8948   0.135E+00    0.152E+00
RMM:   4    -0.252825599117E+04    0.11070E-01   -0.25388E-01  9370   0.446E-01    0.125E+00
RMM:   5    -0.252824010847E+04    0.15883E-01   -0.74482E-02  9275   0.213E-01    0.101E+00
RMM:   6    -0.252823217113E+04    0.79373E-02   -0.69969E-02  8752   0.212E-01    0.500E-01
RMM:   7    -0.252823382056E+04   -0.16494E-02   -0.27316E-02  9626   0.131E-01    0.310E-01
RMM:   8    -0.252823306838E+04    0.75218E-03   -0.49925E-03  8469   0.613E-02    0.215E-01
RMM:   9    -0.252823286277E+04    0.20561E-03   -0.26053E-03  7671   0.426E-02    0.135E-01
RMM:  10    -0.252823287080E+04   -0.80252E-05   -0.71845E-04  4927   0.321E-02
  13 F= -.25282329E+04 E0= -.25282147E+04  d E =-.625849E+00  mag=   244.0000
       N       E                     dE             d eps       ncg     rms          rms(c)
DAV:   1    -0.252711555955E+04    0.11173E+01   -0.26153E+02  6480   0.139E+01    0.589E+00
RMM:   2    -0.252840752979E+04   -0.12920E+01   -0.11805E+01  8100   0.507E+00    0.323E+00
RMM:   3    -0.252872204166E+04   -0.31451E+00   -0.25944E+00  8971   0.141E+00    0.172E+00
RMM:   4    -0.252870035824E+04    0.21683E-01   -0.25746E-01  9127   0.510E-01    0.136E+00
RMM:   5    -0.252868277238E+04    0.17586E-01   -0.10063E-01  9238   0.252E-01    0.114E+00
RMM:   6    -0.252867601994E+04    0.67524E-02   -0.79520E-02  8846   0.228E-01    0.569E-01
RMM:   7    -0.252867734566E+04   -0.13257E-02   -0.24341E-02  9663   0.129E-01    0.325E-01
RMM:   8    -0.252867669861E+04    0.64705E-03   -0.62391E-03  8838   0.672E-02    0.250E-01
RMM:   9    -0.252867663696E+04    0.61643E-04   -0.24933E-03  7804   0.424E-02    0.146E-01
RMM:  10    -0.252867663173E+04    0.52344E-05   -0.52796E-04  4441   0.312E-02
  14 F= -.25286766E+04 E0= -.25286590E+04  d E =-.106961E+01  mag=   244.0000
       N       E                     dE             d eps       ncg     rms          rms(c)
DAV:   1    -0.252214851029E+04    0.65281E+01   -0.10498E+03  6880   0.280E+01    0.134E+01
RMM:   2    -0.252733048271E+04   -0.51820E+01   -0.47473E+01  8092   0.991E+00    0.715E+00
RMM:   3    -0.252850370111E+04   -0.11732E+01   -0.98096E+00  8990   0.283E+00    0.365E+00
RMM:   4    -0.252838676544E+04    0.11694E+00   -0.98094E-01  8811   0.108E+00    0.265E+00
RMM:   5    -0.252832824085E+04    0.58525E-01   -0.43639E-01  9390   0.552E-01    0.226E+00
RMM:   6    -0.252830736589E+04    0.20875E-01   -0.25209E-01  8912   0.397E-01    0.116E+00
RMM:   7    -0.252830862021E+04   -0.12543E-02   -0.77375E-02  9498   0.254E-01    0.575E-01
RMM:   8    -0.252830858364E+04    0.36574E-04   -0.28705E-02  9802   0.130E-01    0.512E-01
RMM:   9    -0.252830887694E+04   -0.29330E-03   -0.79760E-03  9755   0.666E-02    0.238E-01
RMM:  10    -0.252830888270E+04   -0.57588E-05   -0.23906E-03  7697   0.384E-02    0.132E-01
RMM:  11    -0.252830889861E+04   -0.15912E-04   -0.11221E-03  5875   0.393E-02    0.944E-02
RMM:  12    -0.252830892995E+04   -0.31338E-04   -0.53248E-04  4543   0.325E-02
  15 F= -.25283089E+04 E0= -.25282935E+04  d E =-.701908E+00  mag=   244.0000
       N       E                     dE             d eps       ncg     rms          rms(c)
DAV:   1    -0.252533711474E+04    0.29718E+01   -0.59243E+02  6800   0.209E+01    0.910E+00
RMM:   2    -0.252821461966E+04   -0.28775E+01   -0.26286E+01  8200   0.736E+00    0.556E+00
RMM:   3    -0.252886424897E+04   -0.64963E+00   -0.53777E+00  9001   0.207E+00    0.284E+00
RMM:   4    -0.252880971407E+04    0.54535E-01   -0.51404E-01  8775   0.819E-01    0.231E+00
RMM:   5    -0.252877704635E+04    0.32668E-01   -0.23998E-01  9158   0.369E-01    0.174E+00
RMM:   6    -0.252876135694E+04    0.15689E-01   -0.15726E-01  8751   0.332E-01    0.870E-01
RMM:   7    -0.252876570533E+04   -0.43484E-02   -0.57232E-02  9762   0.197E-01    0.511E-01
RMM:   8    -0.252876453078E+04    0.11745E-02   -0.11949E-02  9225   0.964E-02    0.359E-01
RMM:   9    -0.252876418845E+04    0.34233E-03   -0.51304E-03  9589   0.512E-02    0.191E-01
RMM:  10    -0.252876398106E+04    0.20739E-03   -0.17569E-03  6993   0.387E-02    0.116E-01
RMM:  11    -0.252876398418E+04   -0.31166E-05   -0.67379E-04  5068   0.327E-02
  16 F= -.25287640E+04 E0= -.25287469E+04  d E =-.115696E+01  mag=   244.0000
       N       E                     dE             d eps       ncg     rms          rms(c)
DAV:   1    -0.252822518483E+04    0.53880E+00   -0.17148E+02  7120   0.116E+01    0.668E+00
RMM:   2    -0.252895778317E+04   -0.73260E+00   -0.96966E+00  7851   0.486E+00    0.503E+00
RMM:   3    -0.252923696463E+04   -0.27918E+00   -0.26150E+00  8991   0.149E+00    0.217E+00
RMM:   4    -0.252921036927E+04    0.26595E-01   -0.27955E-01  9128   0.557E-01    0.189E+00
RMM:   5    -0.252919126109E+04    0.19108E-01   -0.12222E-01  8959   0.287E-01    0.113E+00
RMM:   6    -0.252918978023E+04    0.14809E-02   -0.77038E-02  8901   0.234E-01    0.509E-01
RMM:   7    -0.252918996832E+04   -0.18809E-03   -0.18946E-02  9438   0.121E-01    0.327E-01
RMM:   8    -0.252918911085E+04    0.85747E-03   -0.65093E-03  9224   0.594E-02    0.162E-01
RMM:   9    -0.252918893845E+04    0.17239E-03   -0.33459E-03  8327   0.460E-02    0.108E-01
RMM:  10    -0.252918889360E+04    0.44850E-04   -0.37830E-04  4218   0.284E-02
  17 F= -.25291889E+04 E0= -.25291731E+04  d E =-.424909E+00  mag=   244.0000
       N       E                     dE             d eps       ncg     rms          rms(c)
DAV:   1    -0.252911507539E+04    0.73863E-01   -0.19414E+01  7040   0.392E+00    0.222E+00
RMM:   2    -0.252920448358E+04   -0.89408E-01   -0.11806E+00  7965   0.163E+00    0.163E+00
RMM:   3    -0.252923557311E+04   -0.31090E-01   -0.28918E-01  9032   0.487E-01    0.724E-01
RMM:   4    -0.252923207429E+04    0.34988E-02   -0.29075E-02  9124   0.188E-01    0.607E-01
RMM:   5    -0.252922998416E+04    0.20901E-02   -0.15422E-02  8901   0.102E-01    0.367E-01
RMM:   6    -0.252922991298E+04    0.71180E-04   -0.91756E-03  8790   0.842E-02    0.175E-01
RMM:   7    -0.252922986832E+04    0.44661E-04   -0.18559E-03  7071   0.444E-02    0.112E-01
RMM:   8    -0.252922975076E+04    0.11756E-03   -0.52606E-04  4676   0.295E-02    0.602E-02
RMM:   9    -0.252922973090E+04    0.19855E-04   -0.55045E-04  4765   0.298E-02
  18 F= -.25292297E+04 E0= -.25292143E+04  d E =-.465747E+00  mag=   244.0000
       N       E                     dE             d eps       ncg     rms          rms(c)
DAV:   1    -0.252921512526E+04    0.14626E-01   -0.47630E+01  7120   0.624E+00    0.262E+00
RMM:   2    -0.252943116819E+04   -0.21604E+00   -0.24026E+00  8185   0.233E+00    0.169E+00
RMM:   3    -0.252949384587E+04   -0.62678E-01   -0.59250E-01  9050   0.685E-01    0.946E-01
RMM:   4    -0.252948684335E+04    0.70025E-02   -0.59914E-02  8980   0.259E-01    0.682E-01
RMM:   5    -0.252948293708E+04    0.39063E-02   -0.33257E-02  8919   0.148E-01    0.518E-01
RMM:   6    -0.252948304236E+04   -0.10528E-03   -0.15716E-02  9553   0.105E-01    0.249E-01
RMM:   7    -0.252948286648E+04    0.17588E-03   -0.29369E-03  7815   0.533E-02    0.155E-01
RMM:   8    -0.252948282909E+04    0.37391E-04   -0.15295E-03  6668   0.354E-02    0.789E-02
RMM:   9    -0.252948282505E+04    0.40430E-05   -0.37341E-04  4188   0.312E-02
  19 F= -.25294828E+04 E0= -.25294683E+04  d E =-.253094E+00  mag=   244.0000
       N       E                     dE             d eps       ncg     rms          rms(c)
DAV:   1    -0.252943570741E+04    0.47122E-01   -0.20972E+01  7360   0.414E+00    0.174E+00
RMM:   2    -0.252953276649E+04   -0.97059E-01   -0.10780E+00  8191   0.156E+00    0.111E+00
RMM:   3    -0.252956099932E+04   -0.28233E-01   -0.26743E-01  9073   0.457E-01    0.633E-01
RMM:   4    -0.252955798363E+04    0.30157E-02   -0.27330E-02  8983   0.175E-01    0.460E-01
RMM:   5    -0.252955634072E+04    0.16429E-02   -0.15812E-02  8957   0.101E-01    0.350E-01
RMM:   6    -0.252955642113E+04   -0.80409E-04   -0.71621E-03  9197   0.718E-02    0.167E-01
RMM:   7    -0.252955632858E+04    0.92553E-04   -0.12205E-03  5972   0.395E-02    0.107E-01
RMM:   8    -0.252955630311E+04    0.25469E-04   -0.67648E-04  5032   0.325E-02
  20 F= -.25295563E+04 E0= -.25295423E+04  d E =-.326572E+00  mag=   244.0000
       N       E                     dE             d eps       ncg     rms          rms(c)
DAV:   1    -0.252953912073E+04    0.17208E-01   -0.41645E+00  7360   0.184E+00    0.776E-01
RMM:   2    -0.252955877822E+04   -0.19657E-01   -0.21691E-01  8207   0.693E-01    0.477E-01
RMM:   3    -0.252956447106E+04   -0.56928E-02   -0.54140E-02  9156   0.204E-01    0.283E-01
RMM:   4    -0.252956385297E+04    0.61809E-03   -0.56241E-03  8691   0.782E-02    0.206E-01
RMM:   5    -0.252956350361E+04    0.34936E-03   -0.33726E-03  7550   0.493E-02    0.139E-01
RMM:   6    -0.252956351940E+04   -0.15792E-04   -0.11710E-03  6190   0.434E-02    0.746E-02
RMM:   7    -0.252956351664E+04    0.27645E-05   -0.28804E-04  4119   0.288E-02
  21 F= -.25295635E+04 E0= -.25295497E+04  d E =-.333786E+00  mag=   244.0000
       N       E                     dE             d eps       ncg     rms          rms(c)
DAV:   1    -0.252934697862E+04    0.21654E+00   -0.65702E+01  6800   0.734E+00    0.287E+00
RMM:   2    -0.252965320351E+04   -0.30622E+00   -0.33537E+00  8186   0.280E+00    0.183E+00
RMM:   3    -0.252974143940E+04   -0.88236E-01   -0.84832E-01  9098   0.831E-01    0.974E-01
RMM:   4    -0.252973773433E+04    0.37051E-02   -0.98108E-02  9466   0.291E-01    0.720E-01
RMM:   5    -0.252973348031E+04    0.42540E-02   -0.32070E-02  9440   0.144E-01    0.627E-01
RMM:   6    -0.252973244378E+04    0.10365E-02   -0.17839E-02  9367   0.102E-01    0.295E-01
RMM:   7    -0.252973283995E+04   -0.39617E-03   -0.66278E-03  9092   0.739E-02    0.153E-01
RMM:   8    -0.252973275897E+04    0.80986E-04   -0.12797E-03  6421   0.349E-02    0.101E-01
RMM:   9    -0.252973273555E+04    0.23412E-04   -0.58367E-04  4574   0.310E-02
  22 F= -.25297327E+04 E0= -.25297184E+04  d E =-.169219E+00  mag=   244.0000
       N       E                     dE             d eps       ncg     rms          rms(c)
DAV:   1    -0.252969341517E+04    0.39344E-01   -0.10090E+01  6880   0.287E+00    0.113E+00
RMM:   2    -0.252974128606E+04   -0.47871E-01   -0.51924E-01  8184   0.110E+00    0.732E-01
RMM:   3    -0.252975523774E+04   -0.13952E-01   -0.13295E-01  9124   0.327E-01    0.386E-01
RMM:   4    -0.252975470947E+04    0.52827E-03   -0.15696E-02  9459   0.115E-01    0.287E-01
RMM:   5    -0.252975406718E+04    0.64229E-03   -0.51597E-03  8889   0.590E-02    0.242E-01
RMM:   6    -0.252975395023E+04    0.11695E-03   -0.28953E-03  8160   0.469E-02    0.114E-01
RMM:   7    -0.252975401564E+04   -0.65409E-04   -0.85392E-04  5626   0.358E-02
  23 F= -.25297540E+04 E0= -.25297394E+04  d E =-.190499E+00  mag=   244.0000
       N       E                     dE             d eps       ncg     rms          rms(c)
DAV:   1    -0.252948441811E+04    0.26953E+00   -0.40068E+01  6720   0.574E+00    0.222E+00
RMM:   2    -0.252967166097E+04   -0.18724E+00   -0.20551E+00  8182   0.220E+00    0.142E+00
RMM:   3    -0.252972715910E+04   -0.55498E-01   -0.53119E-01  9099   0.651E-01    0.762E-01
RMM:   4    -0.252972509200E+04    0.20671E-02   -0.61334E-02  9579   0.224E-01    0.573E-01
RMM:   5    -0.252972256021E+04    0.25318E-02   -0.19241E-02  9502   0.110E-01    0.487E-01
RMM:   6    -0.252972186813E+04    0.69208E-03   -0.11239E-02  9161   0.824E-02    0.235E-01
RMM:   7    -0.252972215470E+04   -0.28656E-03   -0.42811E-03  8711   0.598E-02    0.123E-01
RMM:   8    -0.252972207118E+04    0.83518E-04   -0.65313E-04  4757   0.317E-02
  24 F= -.25297221E+04 E0= -.25297070E+04  d E =-.158555E+00  mag=   244.0000
       N       E                     dE             d eps       ncg     rms          rms(c)
DAV:   1    -0.252961867572E+04    0.10348E+00   -0.23875E+01  6880   0.443E+00    0.177E+00
RMM:   2    -0.252977564798E+04   -0.15697E+00   -0.20378E-01  8342   0.240E+00    0.115E+00
RMM:   3    -0.252974754718E+04    0.28101E-01   -0.59873E-01  8639   0.996E-01    0.579E-01
RMM:   4    -0.252975600400E+04   -0.84568E-02   -0.99363E-02  9070   0.309E-01    0.447E-01
RMM:   5    -0.252975581298E+04    0.19101E-03   -0.26590E-02  9174   0.124E-01    0.343E-01
RMM:   6    -0.252975539652E+04    0.41646E-03   -0.10185E-02  8871   0.769E-02    0.175E-01
RMM:   7    -0.252975557170E+04   -0.17517E-03   -0.37971E-03  8324   0.536E-02    0.880E-02
RMM:   8    -0.252975549716E+04    0.74542E-04   -0.53343E-04  4627   0.311E-02
  25 F= -.25297555E+04 E0= -.25297408E+04  d E =-.191981E+00  mag=   244.0028
       N       E                     dE             d eps       ncg     rms          rms(c)
DAV:   1    -0.252953986924E+04    0.21570E+00   -0.59840E+01  6240   0.668E+00    0.247E+00
RMM:   2    -0.252983123158E+04   -0.29136E+00   -0.29004E+00  8217   0.246E+00    0.122E+00
RMM:   3    -0.252988842241E+04   -0.57191E-01   -0.52926E-01  9113   0.654E-01    0.745E-01
RMM:   4    -0.252988412039E+04    0.43020E-02   -0.56252E-02  9255   0.224E-01    0.562E-01
RMM:   5    -0.252988013781E+04    0.39826E-02   -0.25635E-02  9245   0.126E-01    0.481E-01
RMM:   6    -0.252987941600E+04    0.72182E-03   -0.13698E-02  9331   0.914E-02    0.212E-01
RMM:   7    -0.252987954536E+04   -0.12937E-03   -0.38856E-03  8706   0.556E-02    0.122E-01
RMM:   8    -0.252987948882E+04    0.56549E-04   -0.10127E-03  5994   0.330E-02    0.906E-02
RMM:   9    -0.252987949235E+04   -0.35320E-05   -0.29105E-04  4020   0.297E-02
  26 F= -.25298795E+04 E0= -.25298646E+04  d E =-.123995E+00  mag=   244.0003
       N       E                     dE             d eps       ncg     rms          rms(c)
DAV:   1    -0.252985120590E+04    0.28283E-01   -0.72661E+00  6640   0.233E+00    0.877E-01
RMM:   2    -0.252988667997E+04   -0.35474E-01   -0.35105E-01  8218   0.855E-01    0.436E-01
RMM:   3    -0.252989389807E+04   -0.72181E-02   -0.66759E-02  9198   0.230E-01    0.260E-01
RMM:   4    -0.252989342265E+04    0.47542E-03   -0.76727E-03  9082   0.800E-02    0.195E-01
RMM:   5    -0.252989298754E+04    0.43510E-03   -0.32189E-03  8272   0.463E-02    0.162E-01
RMM:   6    -0.252989290897E+04    0.78570E-04   -0.13986E-03  6806   0.402E-02    0.732E-02
RMM:   7    -0.252989293433E+04   -0.25353E-04   -0.45107E-04  4506   0.307E-02
  27 F= -.25298929E+04 E0= -.25298780E+04  d E =-.137437E+00  mag=   244.0000
       N       E                     dE             d eps       ncg     rms          rms(c)
DAV:   1    -0.252978072196E+04    0.11219E+00   -0.38358E+01  6320   0.545E+00    0.211E+00
RMM:   2    -0.252997426582E+04   -0.19354E+00   -0.20190E+00  8318   0.206E+00    0.135E+00
RMM:   3    -0.253002023463E+04   -0.45969E-01   -0.39693E-01  9080   0.549E-01    0.799E-01
RMM:   4    -0.253001547478E+04    0.47599E-02   -0.38709E-02  9311   0.202E-01    0.612E-01
RMM:   5    -0.253001253196E+04    0.29428E-02   -0.22956E-02  9295   0.111E-01    0.469E-01
RMM:   6    -0.253001210630E+04    0.42566E-03   -0.15348E-02  9022   0.973E-02    0.241E-01
RMM:   7    -0.253001200626E+04    0.10005E-03   -0.22819E-03  7621   0.515E-02    0.130E-01
RMM:   8    -0.253001183720E+04    0.16906E-03   -0.18894E-03  6638   0.404E-02    0.105E-01
RMM:   9    -0.253001184755E+04   -0.10347E-04   -0.30570E-04  4085   0.285E-02
  28 F= -.25300118E+04 E0= -.25299965E+04  d E =-.118913E+00  mag=   244.0000
       N       E                     dE             d eps       ncg     rms          rms(c)
DAV:   1    -0.252968970899E+04    0.32213E+00   -0.64725E+01  6400   0.708E+00    0.276E+00
RMM:   2    -0.253001520595E+04   -0.32550E+00   -0.33819E+00  8323   0.267E+00    0.180E+00
RMM:   3    -0.253009228703E+04   -0.77081E-01   -0.66628E-01  9073   0.710E-01    0.105E+00
RMM:   4    -0.253008409581E+04    0.81912E-02   -0.65621E-02  9300   0.263E-01    0.798E-01
RMM:   5    -0.253007898599E+04    0.51098E-02   -0.39521E-02  9227   0.146E-01    0.618E-01
RMM:   6    -0.253007844439E+04    0.54160E-03   -0.25899E-02  9106   0.127E-01    0.318E-01
RMM:   7    -0.253007825158E+04    0.19281E-03   -0.39210E-03  8426   0.655E-02    0.172E-01
RMM:   8    -0.253007799546E+04    0.25613E-03   -0.34866E-03  7748   0.482E-02    0.138E-01
RMM:   9    -0.253007801329E+04   -0.17834E-04   -0.49969E-04  4654   0.315E-02
  29 F= -.25300780E+04 E0= -.25300621E+04  d E =-.185079E+00  mag=   244.0000
       N       E                     dE             d eps       ncg     rms          rms(c)
DAV:   1    -0.252981803289E+04    0.25996E+00   -0.70297E+01  6480   0.734E+00    0.254E+00
RMM:   2    -0.253012613216E+04   -0.30810E+00   -0.32937E+00  8331   0.265E+00    0.144E+00
RMM:   3    -0.253018863373E+04   -0.62502E-01   -0.58060E-01  9118   0.687E-01    0.826E-01
RMM:   4    -0.253018379986E+04    0.48339E-02   -0.64211E-02  9530   0.245E-01    0.641E-01
RMM:   5    -0.253018046373E+04    0.33361E-02   -0.31804E-02  9458   0.129E-01    0.440E-01
RMM:   6    -0.253018001076E+04    0.45296E-03   -0.16173E-02  9208   0.104E-01    0.232E-01
RMM:   7    -0.253018027250E+04   -0.26174E-03   -0.41022E-03  9018   0.512E-02    0.133E-01
RMM:   8    -0.253018013640E+04    0.13610E-03   -0.10253E-03  5996   0.313E-02    0.780E-02
RMM:   9    -0.253018013241E+04    0.39946E-05   -0.62882E-04  4966   0.321E-02
  30 F= -.25301801E+04 E0= -.25301640E+04  d E =-.102119E+00  mag=   244.0000
       N       E                     dE             d eps       ncg     rms          rms(c)
DAV:   1    -0.253012508084E+04    0.55056E-01   -0.15278E+01  6640   0.342E+00    0.118E+00
RMM:   2    -0.253019264297E+04   -0.67562E-01   -0.71723E-01  8324   0.124E+00    0.705E-01
RMM:   3    -0.253020660612E+04   -0.13963E-01   -0.12919E-01  9153   0.323E-01    0.402E-01
RMM:   4    -0.253020555110E+04    0.10550E-02   -0.14484E-02  9394   0.115E-01    0.304E-01
RMM:   5    -0.253020475861E+04    0.79250E-03   -0.79548E-03  9086   0.673E-02    0.207E-01
RMM:   6    -0.253020478098E+04   -0.22374E-04   -0.35632E-03  8486   0.509E-02    0.108E-01
RMM:   7    -0.253020479717E+04   -0.16186E-04   -0.54410E-04  4786   0.303E-02
  31 F= -.25302048E+04 E0= -.25301885E+04  d E =-.126784E+00  mag=   244.0000
       N       E                     dE             d eps       ncg     rms          rms(c)
DAV:   1    -0.252989431002E+04    0.31047E+00   -0.60936E+01  6480   0.682E+00    0.238E+00
RMM:   2    -0.253016178248E+04   -0.26747E+00   -0.28647E+00  8327   0.247E+00    0.136E+00
RMM:   3    -0.253021699468E+04   -0.55212E-01   -0.51190E-01  9097   0.643E-01    0.782E-01
RMM:   4    -0.253021266447E+04    0.43302E-02   -0.56035E-02  9508   0.230E-01    0.603E-01
RMM:   5    -0.253020983828E+04    0.28262E-02   -0.28567E-02  9490   0.122E-01    0.417E-01
RMM:   6    -0.253020948383E+04    0.35445E-03   -0.14300E-02  9237   0.963E-02    0.224E-01
RMM:   7    -0.253020970628E+04   -0.22246E-03   -0.36715E-03  8767   0.496E-02    0.123E-01
RMM:   8    -0.253020956673E+04    0.13955E-03   -0.95922E-04  5800   0.313E-02    0.738E-02
RMM:   9    -0.253020957471E+04   -0.79740E-05   -0.54896E-04  4720   0.311E-02
  32 F= -.25302096E+04 E0= -.25301931E+04  d E =-.131561E+00  mag=   244.0000
       N       E                     dE             d eps       ncg     rms          rms(c)
DAV:   1    -0.253015006170E+04    0.59505E-01   -0.12791E+01  6800   0.312E+00    0.110E+00
RMM:   2    -0.253020541263E+04   -0.55351E-01   -0.59204E-01  8259   0.113E+00    0.724E-01
RMM:   3    -0.253021687575E+04   -0.11463E-01   -0.10540E-01  8964   0.297E-01    0.396E-01
RMM:   4    -0.253021578026E+04    0.10955E-02   -0.10920E-02  8878   0.106E-01    0.288E-01
RMM:   5    -0.253021500699E+04    0.77327E-03   -0.58280E-03  8533   0.609E-02    0.224E-01
RMM:   6    -0.253021489287E+04    0.11412E-03   -0.29270E-03  8014   0.485E-02    0.120E-01
RMM:   7    -0.253021486829E+04    0.24581E-04   -0.46863E-04  4530   0.306E-02
  33 F= -.25302149E+04 E0= -.25301985E+04  d E =-.136855E+00  mag=   244.0000
       N       E                     dE             d eps       ncg     rms          rms(c)
DAV:   1    -0.253012528994E+04    0.89603E-01   -0.32694E+01  6480   0.494E+00    0.142E+00
RMM:   2    -0.253026190768E+04   -0.13662E+00   -0.13987E+00  8180   0.171E+00    0.883E-01
RMM:   3    -0.253028737493E+04   -0.25467E-01   -0.23905E-01  9075   0.445E-01    0.519E-01
RMM:   4    -0.253028546285E+04    0.19121E-02   -0.27287E-02  9328   0.152E-01    0.400E-01
RMM:   5    -0.253028359284E+04    0.18700E-02   -0.14147E-02  9156   0.886E-02    0.291E-01
RMM:   6    -0.253028337364E+04    0.21920E-03   -0.67696E-03  8923   0.665E-02    0.152E-01
RMM:   7    -0.253028334565E+04    0.27989E-04   -0.10755E-03  6132   0.345E-02    0.832E-02
RMM:   8    -0.253028328838E+04    0.57269E-04   -0.52443E-04  4658   0.317E-02
  34 F= -.25302833E+04 E0= -.25302667E+04  d E =-.684201E-01  mag=   244.0000
       N       E                     dE             d eps       ncg     rms          rms(c)
DAV:   1    -0.252892830264E+04    0.13550E+01   -0.29350E+02  6400   0.148E+01    0.447E+00
RMM:   2    -0.253020543125E+04   -0.12771E+01   -0.13087E+01  8207   0.522E+00    0.306E+00
RMM:   3    -0.253044898255E+04   -0.24355E+00   -0.22779E+00  9153   0.137E+00    0.176E+00
RMM:   4    -0.253042963059E+04    0.19352E-01   -0.26224E-01  9731   0.456E-01    0.131E+00
RMM:   5    -0.253041221258E+04    0.17418E-01   -0.12923E-01  9412   0.259E-01    0.992E-01
RMM:   6    -0.253040967876E+04    0.25338E-02   -0.68441E-02  9375   0.201E-01    0.560E-01
RMM:   7    -0.253041009400E+04   -0.41524E-03   -0.14944E-02  9767   0.100E-01    0.326E-01
RMM:   8    -0.253040956057E+04    0.53343E-03   -0.68616E-03  9407   0.595E-02    0.195E-01
RMM:   9    -0.253040957624E+04   -0.15674E-04   -0.21030E-03  7482   0.421E-02    0.169E-01
RMM:  10    -0.253040957910E+04   -0.28567E-05   -0.60481E-04  4885   0.317E-02
  35 F= -.25304096E+04 E0= -.25303926E+04  d E =-.194711E+00  mag=   244.0000
       N       E                     dE             d eps       ncg     rms          rms(c)
DAV:   1    -0.253026183303E+04    0.14774E+00   -0.33219E+01  6560   0.499E+00    0.146E+00
RMM:   2    -0.253040211058E+04   -0.14028E+00   -0.14404E+00  8216   0.173E+00    0.899E-01
RMM:   3    -0.253042883554E+04   -0.26725E-01   -0.25053E-01  9168   0.451E-01    0.531E-01
RMM:   4    -0.253042691200E+04    0.19235E-02   -0.29437E-02  9547   0.155E-01    0.404E-01
RMM:   5    -0.253042532339E+04    0.15886E-02   -0.14692E-02  9410   0.889E-02    0.310E-01
RMM:   6    -0.253042506731E+04    0.25608E-03   -0.73786E-03  9099   0.672E-02    0.167E-01
RMM:   7    -0.253042506803E+04   -0.71950E-06   -0.13931E-03  6656   0.367E-02    0.908E-02
RMM:   8    -0.253042501717E+04    0.50861E-04   -0.57594E-04  4839   0.332E-02
  36 F= -.25304250E+04 E0= -.25304079E+04  d E =-.210149E+00  mag=   244.0000
       N       E                     dE             d eps       ncg     rms          rms(c)
DAV:   1    -0.253014982896E+04    0.27524E+00   -0.80910E+01  6320   0.781E+00    0.236E+00
RMM:   2    -0.253048398010E+04   -0.33415E+00   -0.35550E+00  8271   0.274E+00    0.150E+00
RMM:   3    -0.253054897568E+04   -0.64996E-01   -0.62814E-01  9180   0.717E-01    0.906E-01
RMM:   4    -0.253054373082E+04    0.52449E-02   -0.72731E-02  9633   0.244E-01    0.683E-01
RMM:   5    -0.253053936272E+04    0.43681E-02   -0.40403E-02  9173   0.146E-01    0.487E-01
RMM:   6    -0.253053928528E+04    0.77442E-04   -0.17058E-02  9500   0.103E-01    0.283E-01
RMM:   7    -0.253053925517E+04    0.30109E-04   -0.32814E-03  8198   0.486E-02    0.164E-01
RMM:   8    -0.253053905271E+04    0.20246E-03   -0.24384E-03  7178   0.424E-02    0.909E-02
RMM:   9    -0.253053906363E+04   -0.10920E-04   -0.55862E-04  4700   0.308E-02
  37 F= -.25305391E+04 E0= -.25305221E+04  d E =-.114046E+00  mag=   244.0000
       N       E                     dE             d eps       ncg     rms          rms(c)
DAV:   1    -0.253036283294E+04    0.17622E+00   -0.47004E+01  6480   0.595E+00    0.180E+00
RMM:   2    -0.253055713660E+04   -0.19430E+00   -0.20649E+00  8277   0.208E+00    0.111E+00
RMM:   3    -0.253059471420E+04   -0.37578E-01   -0.36325E-01  9181   0.543E-01    0.674E-01
RMM:   4    -0.253059168077E+04    0.30334E-02   -0.41823E-02  9521   0.189E-01    0.513E-01
RMM:   5    -0.253058923278E+04    0.24480E-02   -0.25262E-02  9154   0.116E-01    0.343E-01
RMM:   6    -0.253058933221E+04   -0.99427E-04   -0.96326E-03  9482   0.795E-02    0.205E-01
RMM:   7    -0.253058925853E+04    0.73676E-04   -0.16765E-03  6918   0.363E-02    0.123E-01
RMM:   8    -0.253058915189E+04    0.10664E-03   -0.13182E-03  6098   0.365E-02    0.657E-02
RMM:   9    -0.253058916488E+04   -0.12996E-04   -0.38681E-04  4355   0.287E-02
  38 F= -.25305892E+04 E0= -.25305723E+04  d E =-.164148E+00  mag=   244.0000
       N       E                     dE             d eps       ncg     rms          rms(c)
DAV:   1    -0.252967277741E+04    0.91637E+00   -0.18777E+02  6320   0.119E+01    0.368E+00
RMM:   2    -0.253045752984E+04   -0.78475E+00   -0.83260E+00  8267   0.420E+00    0.240E+00
RMM:   3    -0.253060934037E+04   -0.15181E+00   -0.14663E+00  9147   0.110E+00    0.144E+00
RMM:   4    -0.253059633870E+04    0.13002E-01   -0.16587E-01  9589   0.382E-01    0.107E+00
RMM:   5    -0.253058582038E+04    0.10518E-01   -0.99122E-02  9192   0.230E-01    0.767E-01
RMM:   6    -0.253058591726E+04   -0.96887E-04   -0.40674E-02  9552   0.160E-01    0.450E-01
RMM:   7    -0.253058581817E+04    0.99096E-04   -0.79820E-03  9368   0.731E-02    0.275E-01
RMM:   8    -0.253058533051E+04    0.48766E-03   -0.60211E-03  8937   0.558E-02    0.139E-01
RMM:   9    -0.253058536417E+04   -0.33659E-04   -0.14975E-03  6589   0.386E-02    0.129E-01
RMM:  10    -0.253058536364E+04    0.52905E-06   -0.38381E-04  4256   0.306E-02
  39 F= -.25305854E+04 E0= -.25305685E+04  d E =-.160346E+00  mag=   244.0000
       N       E                     dE             d eps       ncg     rms          rms(c)
DAV:   1    -0.253026535247E+04    0.32001E+00   -0.72168E+01  6320   0.736E+00    0.222E+00
RMM:   2    -0.253055808155E+04   -0.29273E+00   -0.31576E+00  8271   0.255E+00    0.130E+00
RMM:   3    -0.253061272153E+04   -0.54640E-01   -0.53678E-01  9011   0.661E-01    0.785E-01
RMM:   4    -0.253060842163E+04    0.42999E-02   -0.63108E-02  9278   0.244E-01    0.619E-01
RMM:   5    -0.253060513949E+04    0.32821E-02   -0.33829E-02  9235   0.130E-01    0.403E-01
RMM:   6    -0.253060463547E+04    0.50402E-03   -0.13835E-02  9239   0.971E-02    0.268E-01
RMM:   7    -0.253060472153E+04   -0.86059E-04   -0.32516E-03  8294   0.459E-02    0.136E-01
RMM:   8    -0.253060464435E+04    0.77180E-04   -0.18015E-03  6564   0.393E-02    0.899E-02
RMM:   9    -0.253060468140E+04   -0.37045E-04   -0.40158E-04  4352   0.282E-02
  40 F= -.25306047E+04 E0= -.25305878E+04  d E =-.179664E+00  mag=   244.0000
       N       E                     dE             d eps       ncg     rms          rms(c)
DAV:   1    -0.253035313011E+04    0.25151E+00   -0.80135E+01  6400   0.776E+00    0.204E+00
RMM:   2    -0.253066143755E+04   -0.30831E+00   -0.31371E+00  8122   0.267E+00    0.115E+00
RMM:   3    -0.253072401077E+04   -0.62573E-01   -0.59636E-01  8828   0.701E-01    0.721E-01
RMM:   4    -0.253072267653E+04    0.13342E-02   -0.75325E-02  9219   0.244E-01    0.577E-01
RMM:   5    -0.253071986981E+04    0.28067E-02   -0.30216E-02  9537   0.115E-01    0.422E-01
RMM:   6    -0.253071845056E+04    0.14193E-02   -0.15456E-02  8962   0.101E-01    0.239E-01
RMM:   7    -0.253071865378E+04   -0.20323E-03   -0.45578E-03  8694   0.557E-02    0.137E-01
RMM:   8    -0.253071852946E+04    0.12433E-03   -0.13862E-03  6290   0.368E-02    0.977E-02
RMM:   9    -0.253071854227E+04   -0.12817E-04   -0.52648E-04  4644   0.306E-02
  41 F= -.25307185E+04 E0= -.25307018E+04  d E =-.113861E+00  mag=   244.0000
       N       E                     dE             d eps       ncg     rms          rms(c)
DAV:   1    -0.252925304534E+04    0.14655E+01   -0.34794E+02  6400   0.162E+01    0.439E+00
RMM:   2    -0.253062862171E+04   -0.13756E+01   -0.13953E+01  8123   0.562E+00    0.258E+00
RMM:   3    -0.253090854170E+04   -0.27992E+00   -0.26611E+00  8873   0.149E+00    0.159E+00
RMM:   4    -0.253090088090E+04    0.76608E-02   -0.33484E-01  9453   0.515E-01    0.127E+00
RMM:   5    -0.253088838793E+04    0.12493E-01   -0.14021E-01  9658   0.245E-01    0.904E-01
RMM:   6    -0.253088270404E+04    0.56839E-02   -0.72342E-02  9081   0.220E-01    0.535E-01
RMM:   7    -0.253088396996E+04   -0.12659E-02   -0.21194E-02  9790   0.114E-01    0.318E-01
RMM:   8    -0.253088343019E+04    0.53978E-03   -0.72546E-03  9359   0.672E-02    0.213E-01
RMM:   9    -0.253088354297E+04   -0.11278E-03   -0.30631E-03  7876   0.448E-02    0.168E-01
RMM:  10    -0.253088355277E+04   -0.98034E-05   -0.84974E-04  5509   0.332E-02
  42 F= -.25308836E+04 E0= -.25308669E+04  d E =-.278871E+00  mag=   244.0000
       N       E                     dE             d eps       ncg     rms          rms(c)
DAV:   1    -0.252391563067E+04    0.69679E+01   -0.13853E+03  6320   0.324E+01    0.964E+00
RMM:   2    -0.252979528370E+04   -0.58797E+01   -0.59966E+01  8099   0.116E+01    0.629E+00
RMM:   3    -0.253101122418E+04   -0.12159E+01   -0.11538E+01  8890   0.315E+00    0.375E+00
RMM:   4    -0.253094851845E+04    0.62706E-01   -0.13578E+00  9483   0.111E+00    0.294E+00
RMM:   5    -0.253088526505E+04    0.63253E-01   -0.63629E-01  9505   0.532E-01    0.208E+00
RMM:   6    -0.253085977059E+04    0.25494E-01   -0.34636E-01  9051   0.484E-01    0.125E+00
RMM:   7    -0.253086374567E+04   -0.39751E-02   -0.89655E-02  9712   0.250E-01    0.779E-01
RMM:   8    -0.253086055884E+04    0.31868E-02   -0.32681E-02  9830   0.141E-01    0.450E-01
RMM:   9    -0.253086111355E+04   -0.55471E-03   -0.15286E-02 10096   0.904E-02    0.350E-01
RMM:  10    -0.253086126438E+04   -0.15083E-03   -0.45938E-03  9212   0.511E-02    0.181E-01
RMM:  11    -0.253086128829E+04   -0.23907E-04   -0.12164E-03  6151   0.381E-02    0.122E-01
RMM:  12    -0.253086130563E+04   -0.17343E-04   -0.71355E-04  5398   0.356E-02
  43 F= -.25308613E+04 E0= -.25308445E+04  d E =-.256624E+00  mag=   244.0000
       N       E                     dE             d eps       ncg     rms          rms(c)
DAV:   1    -0.252810785328E+04    0.27534E+01   -0.59414E+02  6320   0.212E+01    0.602E+00
RMM:   2    -0.253050087081E+04   -0.23930E+01   -0.24777E+01  8123   0.741E+00    0.391E+00
RMM:   3    -0.253099093898E+04   -0.49007E+00   -0.46774E+00  8777   0.195E+00    0.212E+00
RMM:   4    -0.253096502319E+04    0.25916E-01   -0.57666E-01  9171   0.726E-01    0.164E+00
RMM:   5    -0.253094412598E+04    0.20897E-01   -0.25090E-01  9763   0.333E-01    0.121E+00
RMM:   6    -0.253093295641E+04    0.11170E-01   -0.14317E-01  8962   0.302E-01    0.686E-01
RMM:   7    -0.253093439597E+04   -0.14396E-02   -0.36911E-02  9849   0.156E-01    0.386E-01
RMM:   8    -0.253093346221E+04    0.93376E-03   -0.13558E-02  9554   0.904E-02    0.258E-01
RMM:   9    -0.253093385476E+04   -0.39255E-03   -0.59705E-03  9496   0.506E-02    0.165E-01
RMM:  10    -0.253093389360E+04   -0.38838E-04   -0.96751E-04  5822   0.323E-02
  44 F= -.25309339E+04 E0= -.25309173E+04  d E =-.329212E+00  mag=   244.0000
       N       E                     dE             d eps       ncg     rms          rms(c)
DAV:   1    -0.253026861763E+04    0.66524E+00   -0.14211E+02  6400   0.104E+01    0.278E+00
RMM:   2    -0.253082663900E+04   -0.55802E+00   -0.56750E+00  8113   0.359E+00    0.156E+00
RMM:   3    -0.253093788717E+04   -0.11125E+00   -0.10622E+00  8767   0.948E-01    0.986E-01
RMM:   4    -0.253093542770E+04    0.24595E-02   -0.13333E-01  9180   0.337E-01    0.792E-01
RMM:   5    -0.253092986352E+04    0.55642E-02   -0.54576E-02  9531   0.159E-01    0.556E-01
RMM:   6    -0.253092743163E+04    0.24319E-02   -0.26985E-02  8963   0.137E-01    0.333E-01
RMM:   7    -0.253092786834E+04   -0.43671E-03   -0.83321E-03  9530   0.716E-02    0.187E-01
RMM:   8    -0.253092763347E+04    0.23488E-03   -0.25776E-03  7409   0.436E-02    0.139E-01
RMM:   9    -0.253092765050E+04   -0.17034E-04   -0.98880E-04  5790   0.341E-02
  45 F= -.25309277E+04 E0= -.25309110E+04  d E =-.322969E+00  mag=   244.0000
       N       E                     dE             d eps       ncg     rms          rms(c)
DAV:   1    -0.253071674177E+04    0.21089E+00   -0.47814E+01  6480   0.600E+00    0.161E+00
RMM:   2    -0.253090319833E+04   -0.18646E+00   -0.19149E+00  8081   0.209E+00    0.923E-01
RMM:   3    -0.253094122090E+04   -0.38023E-01   -0.36446E-01  8763   0.554E-01    0.558E-01
RMM:   4    -0.253094037524E+04    0.84566E-03   -0.45946E-02  9020   0.198E-01    0.444E-01
RMM:   5    -0.253093873603E+04    0.16392E-02   -0.17520E-02  9614   0.900E-02    0.329E-01
RMM:   6    -0.253093769772E+04    0.10383E-02   -0.94796E-03  8819   0.806E-02    0.180E-01
RMM:   7    -0.253093783120E+04   -0.13348E-03   -0.30285E-03  8087   0.461E-02    0.102E-01
RMM:   8    -0.253093775325E+04    0.77946E-04   -0.60980E-04  4927   0.323E-02
  46 F= -.25309378E+04 E0= -.25309211E+04  d E =-.333072E+00  mag=   244.0000
       N       E                     dE             d eps       ncg     rms          rms(c)
DAV:   1    -0.253010395504E+04    0.83388E+00   -0.21210E+02  6240   0.127E+01    0.339E+00
RMM:   2    -0.253095482876E+04   -0.85087E+00   -0.86184E+00  8120   0.445E+00    0.197E+00
RMM:   3    -0.253112367367E+04   -0.16884E+00   -0.15812E+00  8778   0.116E+00    0.119E+00
RMM:   4    -0.253112035649E+04    0.33172E-02   -0.20098E-01  9449   0.416E-01    0.993E-01
RMM:   5    -0.253111383997E+04    0.65165E-02   -0.82741E-02  9925   0.183E-01    0.702E-01
RMM:   6    -0.253110932889E+04    0.45111E-02   -0.45148E-02  8881   0.181E-01    0.422E-01
RMM:   7    -0.253111034487E+04   -0.10160E-02   -0.14867E-02  9763   0.926E-02    0.243E-01
RMM:   8    -0.253110994171E+04    0.40316E-03   -0.40582E-03  8355   0.525E-02    0.167E-01
RMM:   9    -0.253110999423E+04   -0.52516E-04   -0.22475E-03  7476   0.400E-02    0.128E-01
RMM:  10    -0.253110999905E+04   -0.48176E-05   -0.50115E-04  4801   0.296E-02
  47 F= -.25311100E+04 E0= -.25310936E+04  d E =-.172246E+00  mag=   244.0000
       N       E                     dE             d eps       ncg     rms          rms(c)
DAV:   1    -0.253069964359E+04    0.41035E+00   -0.10226E+02  6240   0.879E+00    0.236E+00
RMM:   2    -0.253111093330E+04   -0.41129E+00   -0.41638E+00  8136   0.309E+00    0.135E+00
RMM:   3    -0.253119222426E+04   -0.81291E-01   -0.76105E-01  8825   0.803E-01    0.813E-01
RMM:   4    -0.253119088712E+04    0.13371E-02   -0.98920E-02  9487   0.288E-01    0.676E-01
RMM:   5    -0.253118813621E+04    0.27509E-02   -0.41380E-02  9981   0.129E-01    0.474E-01
RMM:   6    -0.253118621806E+04    0.19182E-02   -0.22818E-02  8938   0.130E-01    0.297E-01
RMM:   7    -0.253118679874E+04   -0.58069E-03   -0.76142E-03  9659   0.640E-02    0.166E-01
RMM:   8    -0.253118657785E+04    0.22089E-03   -0.18430E-03  6841   0.390E-02    0.111E-01
RMM:   9    -0.253118660608E+04   -0.28228E-04   -0.11590E-03  6031   0.343E-02    0.885E-02
RMM:  10    -0.253118662307E+04   -0.16990E-04   -0.32872E-04  4232   0.297E-02
  48 F= -.25311866E+04 E0= -.25311703E+04  d E =-.248870E+00  mag=   244.0000
       N       E                     dE             d eps       ncg     rms          rms(c)
DAV:   1    -0.252924240130E+04    0.19442E+01   -0.40826E+02  6240   0.176E+01    0.482E+00
RMM:   2    -0.253091516674E+04   -0.16728E+01   -0.16948E+01  8125   0.625E+00    0.287E+00
RMM:   3    -0.253125025798E+04   -0.33509E+00   -0.31361E+00  8808   0.164E+00    0.176E+00
RMM:   4    -0.253124290531E+04    0.73527E-02   -0.40234E-01  9542   0.583E-01    0.145E+00
RMM:   5    -0.253123037392E+04    0.12531E-01   -0.16344E-01 10003   0.261E-01    0.103E+00
RMM:   6    -0.253122098077E+04    0.93931E-02   -0.95311E-02  8857   0.266E-01    0.637E-01
RMM:   7    -0.253122343389E+04   -0.24531E-02   -0.32650E-02  9830   0.137E-01    0.383E-01
RMM:   8    -0.253122246696E+04    0.96693E-03   -0.83996E-03  9557   0.748E-02    0.237E-01
RMM:   9    -0.253122252685E+04   -0.59886E-04   -0.52319E-03  9244   0.517E-02    0.167E-01
RMM:  10    -0.253122252928E+04   -0.24370E-05   -0.11637E-03  6081   0.343E-02    0.888E-02
RMM:  11    -0.253122254971E+04   -0.20426E-04   -0.39653E-04  4304   0.301E-02
  49 F= -.25312225E+04 E0= -.25312064E+04  d E =-.284796E+00  mag=   244.0000
       N       E                     dE             d eps       ncg     rms          rms(c)
DAV:   1    -0.253089771428E+04    0.32482E+00   -0.70218E+01  6240   0.729E+00    0.198E+00
RMM:   2    -0.253117780377E+04   -0.28009E+00   -0.28623E+00  8120   0.255E+00    0.120E+00
RMM:   3    -0.253123230716E+04   -0.54503E-01   -0.51286E-01  8733   0.659E-01    0.670E-01
RMM:   4    -0.253123087773E+04    0.14294E-02   -0.65473E-02  9172   0.236E-01    0.544E-01
RMM:   5    -0.253122877317E+04    0.21046E-02   -0.25531E-02  9898   0.106E-01    0.388E-01
RMM:   6    -0.253122724071E+04    0.15325E-02   -0.14551E-02  8767   0.103E-01    0.198E-01
RMM:   7    -0.253122751797E+04   -0.27726E-03   -0.42449E-03  8608   0.524E-02    0.120E-01
RMM:   8    -0.253122743150E+04    0.86464E-04   -0.95536E-04  5819   0.321E-02
  50 F= -.25312274E+04 E0= -.25312112E+04  d E =-.289678E+00  mag=   244.0000
       N       E                     dE             d eps       ncg     rms          rms(c)
DAV:   1    -0.253024133331E+04    0.98618E+00   -0.24641E+02  6640   0.139E+01    0.445E+00
RMM:   2    -0.253128058525E+04   -0.10393E+01   -0.10709E+01  8182   0.504E+00    0.297E+00
RMM:   3    -0.253150287906E+04   -0.22229E+00   -0.20072E+00  8929   0.134E+00    0.165E+00
RMM:   4    -0.253148959006E+04    0.13289E-01   -0.21914E-01  9390   0.467E-01    0.127E+00
RMM:   5    -0.253147674022E+04    0.12850E-01   -0.11166E-01  9298   0.250E-01    0.961E-01
RMM:   6    -0.253147589647E+04    0.84375E-03   -0.55404E-02  9372   0.190E-01    0.540E-01
RMM:   7    -0.253147624971E+04   -0.35325E-03   -0.12616E-02  9877   0.874E-02    0.299E-01
RMM:   8    -0.253147560283E+04    0.64689E-03   -0.55693E-03  8941   0.540E-02    0.168E-01
RMM:   9    -0.253147558325E+04    0.19579E-04   -0.26824E-03  8124   0.406E-02    0.114E-01
RMM:  10    -0.253147556711E+04    0.16141E-04   -0.36179E-04  4359   0.286E-02
  51 F= -.25314756E+04 E0= -.25314593E+04  d E =-.248136E+00  mag=   244.0000
       N       E                     dE             d eps       ncg     rms          rms(c)
DAV:   1    -0.253099584778E+04    0.47974E+00   -0.11475E+02  6880   0.949E+00    0.301E+00
RMM:   2    -0.253147395170E+04   -0.47810E+00   -0.49244E+00  8139   0.340E+00    0.195E+00
RMM:   3    -0.253157610093E+04   -0.10215E+00   -0.92270E-01  9040   0.905E-01    0.108E+00
RMM:   4    -0.253157016253E+04    0.59384E-02   -0.10368E-01  9405   0.311E-01    0.839E-01
RMM:   5    -0.253156508957E+04    0.50730E-02   -0.47464E-02  9442   0.162E-01    0.639E-01
RMM:   6    -0.253156441379E+04    0.67578E-03   -0.25452E-02  9281   0.128E-01    0.353E-01
RMM:   7    -0.253156469563E+04   -0.28184E-03   -0.65427E-03  9523   0.639E-02    0.187E-01
RMM:   8    -0.253156441267E+04    0.28296E-03   -0.22690E-03  7705   0.384E-02    0.106E-01
RMM:   9    -0.253156438749E+04    0.25177E-04   -0.10495E-03  6015   0.325E-02    0.731E-02
RMM:  10    -0.253156439348E+04   -0.59897E-05   -0.26742E-04  4029   0.295E-02
  52 F= -.25315644E+04 E0= -.25315482E+04  d E =-.336962E+00  mag=   244.0000
       N       E                     dE             d eps       ncg     rms          rms(c)
DAV:   1    -0.252922389259E+04    0.23405E+01   -0.45777E+02  6720   0.190E+01    0.619E+00
RMM:   2    -0.253116376692E+04   -0.19399E+01   -0.19960E+01  8079   0.689E+00    0.433E+00
RMM:   3    -0.253159760054E+04   -0.43383E+00   -0.39191E+00  8948   0.188E+00    0.239E+00
RMM:   4    -0.253157163916E+04    0.25961E-01   -0.43297E-01  9420   0.645E-01    0.184E+00
RMM:   5    -0.253154811616E+04    0.23523E-01   -0.20274E-01  9427   0.332E-01    0.139E+00
RMM:   6    -0.253154463811E+04    0.34780E-02   -0.11420E-01  9125   0.276E-01    0.810E-01
RMM:   7    -0.253154587382E+04   -0.12357E-02   -0.28346E-02 10011   0.136E-01    0.429E-01
RMM:   8    -0.253154436714E+04    0.15067E-02   -0.10972E-02  9808   0.744E-02    0.237E-01
RMM:   9    -0.253154433839E+04    0.28752E-04   -0.60553E-03  9707   0.524E-02    0.150E-01
RMM:  10    -0.253154429654E+04    0.41845E-04   -0.70265E-04  5366   0.297E-02
  53 F= -.25315443E+04 E0= -.25315282E+04  d E =-.316865E+00  mag=   244.0000
       N       E                     dE             d eps       ncg     rms          rms(c)
DAV:   1    -0.253057128252E+04    0.97306E+00   -0.20857E+02  6640   0.128E+01    0.404E+00
RMM:   2    -0.253143288996E+04   -0.86161E+00   -0.90291E+00  8213   0.456E+00    0.236E+00
RMM:   3    -0.253160717030E+04   -0.17428E+00   -0.15980E+00  8976   0.119E+00    0.124E+00
RMM:   4    -0.253159600477E+04    0.11166E-01   -0.18096E-01  9096   0.429E-01    0.105E+00
RMM:   5    -0.253159064772E+04    0.53570E-02   -0.74322E-02  9903   0.187E-01    0.748E-01
RMM:   6    -0.253158599979E+04    0.46479E-02   -0.38819E-02  8941   0.167E-01    0.381E-01
RMM:   7    -0.253158701680E+04   -0.10170E-02   -0.16111E-02  9698   0.935E-02    0.235E-01
RMM:   8    -0.253158671649E+04    0.30030E-03   -0.28587E-03  8091   0.488E-02    0.125E-01
RMM:   9    -0.253158680394E+04   -0.87446E-04   -0.18443E-03  7443   0.380E-02    0.788E-02
RMM:  10    -0.253158683620E+04   -0.32263E-04   -0.31236E-04  4175   0.284E-02
  54 F= -.25315868E+04 E0= -.25315707E+04  d E =-.359405E+00  mag=   244.0000
       N       E                     dE             d eps       ncg     rms          rms(c)
DAV:   1    -0.253042483497E+04    0.11620E+01   -0.27748E+02  6720   0.148E+01    0.446E+00
RMM:   2    -0.253160579528E+04   -0.11810E+01   -0.11606E+01  8076   0.516E+00    0.240E+00
RMM:   3    -0.253183791727E+04   -0.23212E+00   -0.20776E+00  8845   0.137E+00    0.140E+00
RMM:   4    -0.253183116411E+04    0.67532E-02   -0.25328E-01  9008   0.502E-01    0.114E+00
RMM:   5    -0.253182560468E+04    0.55594E-02   -0.10476E-01  9942   0.211E-01    0.867E-01
RMM:   6    -0.253181842296E+04    0.71817E-02   -0.56015E-02  8781   0.208E-01    0.552E-01
RMM:   7    -0.253182002657E+04   -0.16036E-02   -0.24059E-02  9646   0.115E-01    0.259E-01
RMM:   8    -0.253181951899E+04    0.50758E-03   -0.41321E-03  8650   0.573E-02    0.159E-01
RMM:   9    -0.253181954972E+04   -0.30724E-04   -0.33084E-03  8377   0.431E-02    0.977E-02
RMM:  10    -0.253181958405E+04   -0.34330E-04   -0.64427E-04  5189   0.335E-02
  55 F= -.25318196E+04 E0= -.25318035E+04  d E =-.232748E+00  mag=   244.0000
       N       E                     dE             d eps       ncg     rms          rms(c)
DAV:   1    -0.253159344438E+04    0.22611E+00   -0.52214E+01  6800   0.640E+00    0.193E+00
RMM:   2    -0.253181700644E+04   -0.22356E+00   -0.21926E+00  8095   0.225E+00    0.101E+00
RMM:   3    -0.253186180760E+04   -0.44801E-01   -0.40231E-01  8947   0.597E-01    0.589E-01
RMM:   4    -0.253186083477E+04    0.97283E-03   -0.50682E-02  9152   0.212E-01    0.488E-01
RMM:   5    -0.253185991447E+04    0.92030E-03   -0.19265E-02  9967   0.922E-02    0.374E-01
RMM:   6    -0.253185867626E+04    0.12382E-02   -0.11162E-02  8950   0.916E-02    0.238E-01
RMM:   7    -0.253185899045E+04   -0.31419E-03   -0.46406E-03  8931   0.520E-02    0.106E-01
RMM:   8    -0.253185888455E+04    0.10590E-03   -0.57830E-04  5034   0.313E-02    0.685E-02
RMM:   9    -0.253185888262E+04    0.19315E-05   -0.52106E-04  4833   0.294E-02
  56 F= -.25318589E+04 E0= -.25318428E+04  d E =-.272046E+00  mag=   244.0000
       N       E                     dE             d eps       ncg     rms          rms(c)
DAV:   1    -0.253141816420E+04    0.44072E+00   -0.12513E+02  6480   0.992E+00    0.305E+00
RMM:   2    -0.253194967353E+04   -0.53151E+00   -0.52156E+00  8086   0.358E+00    0.163E+00
RMM:   3    -0.253206210394E+04   -0.11243E+00   -0.99756E-01  8816   0.962E-01    0.903E-01
RMM:   4    -0.253205981724E+04    0.22867E-02   -0.12282E-01  9150   0.341E-01    0.755E-01
RMM:   5    -0.253205779920E+04    0.20180E-02   -0.48119E-02 10130   0.141E-01    0.580E-01
RMM:   6    -0.253205397329E+04    0.38259E-02   -0.27183E-02  8932   0.143E-01    0.389E-01
RMM:   7    -0.253205482317E+04   -0.84988E-03   -0.14166E-02  9508   0.874E-02    0.171E-01
RMM:   8    -0.253205459605E+04    0.22712E-03   -0.19139E-03  7298   0.463E-02    0.113E-01
RMM:   9    -0.253205458633E+04    0.97200E-05   -0.15965E-03  6980   0.363E-02    0.748E-02
RMM:  10    -0.253205461465E+04   -0.28318E-04   -0.42296E-04  4504   0.310E-02
  57 F= -.25320546E+04 E0= -.25320383E+04  d E =-.195732E+00  mag=   244.0000
       N       E                     dE             d eps       ncg     rms          rms(c)
DAV:   1    -0.253187161821E+04    0.18297E+00   -0.49614E+01  6560   0.625E+00    0.192E+00
RMM:   2    -0.253208481667E+04   -0.21320E+00   -0.20874E+00  8102   0.226E+00    0.102E+00
RMM:   3    -0.253213014154E+04   -0.45325E-01   -0.40179E-01  8904   0.607E-01    0.573E-01
RMM:   4    -0.253212920259E+04    0.93894E-03   -0.49160E-02  9239   0.209E-01    0.480E-01
RMM:   5    -0.253212830530E+04    0.89729E-03   -0.18763E-02 10060   0.883E-02    0.368E-01
RMM:   6    -0.253212682519E+04    0.14801E-02   -0.11241E-02  8952   0.923E-02    0.244E-01
RMM:   7    -0.253212718184E+04   -0.35664E-03   -0.55354E-03  8995   0.565E-02    0.107E-01
RMM:   8    -0.253212707951E+04    0.10233E-03   -0.66078E-04  5233   0.377E-02    0.742E-02
RMM:   9    -0.253212706640E+04    0.13106E-04   -0.49354E-04  4798   0.279E-02
  58 F= -.25321271E+04 E0= -.25321106E+04  d E =-.268184E+00  mag=   244.0000
       N       E                     dE             d eps       ncg     rms          rms(c)
DAV:   1    -0.253114728545E+04    0.97979E+00   -0.19842E+02  6480   0.125E+01    0.383E+00
RMM:   2    -0.253199779987E+04   -0.85051E+00   -0.83512E+00  8161   0.445E+00    0.207E+00
RMM:   3    -0.253216532653E+04   -0.16753E+00   -0.14797E+00  8822   0.115E+00    0.116E+00
RMM:   4    -0.253216046669E+04    0.48598E-02   -0.18125E-01  9240   0.415E-01    0.950E-01
RMM:   5    -0.253215701804E+04    0.34486E-02   -0.74821E-02 10115   0.176E-01    0.736E-01
RMM:   6    -0.253215127200E+04    0.57460E-02   -0.42110E-02  8932   0.177E-01    0.483E-01
RMM:   7    -0.253215257659E+04   -0.13046E-02   -0.20504E-02  9601   0.105E-01    0.207E-01
RMM:   8    -0.253215226144E+04    0.31515E-03   -0.32300E-03  8591   0.526E-02    0.136E-01
RMM:   9    -0.253215227193E+04   -0.10486E-04   -0.22185E-03  7772   0.382E-02    0.889E-02
RMM:  10    -0.253215230841E+04   -0.36484E-04   -0.56002E-04  4972   0.321E-02
  59 F= -.25321523E+04 E0= -.25321355E+04  d E =-.293426E+00  mag=   244.0000
       N       E                     dE             d eps       ncg     rms          rms(c)
DAV:   1    -0.253196278765E+04    0.18948E+00   -0.38541E+01  6400   0.551E+00    0.173E+00
RMM:   2    -0.253200374785E+04   -0.40960E-01   -0.29049E+00  8077   0.269E+00    0.101E+00
RMM:   3    -0.253213141667E+04   -0.12767E+00   -0.68664E-01  8712   0.802E-01    0.524E-01
RMM:   4    -0.253215215605E+04   -0.20739E-01   -0.15617E-01  8850   0.346E-01    0.432E-01
RMM:   5    -0.253215838469E+04   -0.62286E-02   -0.53267E-02  9552   0.171E-01    0.350E-01
RMM:   6    -0.253215938164E+04   -0.99696E-03   -0.22185E-02  8675   0.128E-01    0.224E-01
RMM:   7    -0.253216047771E+04   -0.10961E-02   -0.10978E-02  8444   0.763E-02    0.883E-02
RMM:   8    -0.253216094290E+04   -0.46519E-03   -0.51308E-03  4571   0.450E-02    0.662E-02
RMM:   9    -0.253216100780E+04   -0.64898E-04   -0.76817E-04  4085   0.282E-02
  60 F= -.25321610E+04 E0= -.25321444E+04  d E =-.302125E+00  mag=   243.9963
       N       E                     dE             d eps       ncg     rms          rms(c)
DAV:   1    -0.253201137509E+04    0.14957E+00   -0.53096E+01  6320   0.649E+00    0.189E+00
RMM:   2    -0.253223809208E+04   -0.22672E+00   -0.22621E+00  8068   0.242E+00    0.117E+00
RMM:   3    -0.253229007707E+04   -0.51985E-01   -0.46418E-01  8919   0.666E-01    0.642E-01
RMM:   4    -0.253228945330E+04    0.62377E-03   -0.56182E-02  9127   0.223E-01    0.537E-01
RMM:   5    -0.253228813591E+04    0.13174E-02   -0.19541E-02  9901   0.927E-02    0.416E-01
RMM:   6    -0.253228624217E+04    0.18937E-02   -0.12253E-02  8825   0.971E-02    0.261E-01
RMM:   7    -0.253228658406E+04   -0.34189E-03   -0.65690E-03  8901   0.645E-02    0.119E-01
RMM:   8    -0.253228638262E+04    0.20145E-03   -0.65304E-04  5205   0.395E-02    0.785E-02
RMM:   9    -0.253228634276E+04    0.39852E-04   -0.81128E-04  5566   0.299E-02
  61 F= -.25322863E+04 E0= -.25322696E+04  d E =-.125335E+00  mag=   243.9995
       N       E                     dE             d eps       ncg     rms          rms(c)
DAV:   1    -0.253173712796E+04    0.54925E+00   -0.13095E+02  6320   0.102E+01    0.298E+00
RMM:   2    -0.253230441328E+04   -0.56729E+00   -0.56443E+00  8084   0.381E+00    0.187E+00
RMM:   3    -0.253243494244E+04   -0.13053E+00   -0.11671E+00  9007   0.105E+00    0.104E+00
RMM:   4    -0.253243284239E+04    0.21000E-02   -0.14304E-01  9384   0.344E-01    0.860E-01
RMM:   5    -0.253242900983E+04    0.38326E-02   -0.50271E-02 10025   0.150E-01    0.657E-01
RMM:   6    -0.253242502701E+04    0.39828E-02   -0.32446E-02  9010   0.153E-01    0.404E-01
RMM:   7    -0.253242604877E+04   -0.10218E-02   -0.15757E-02  9439   0.977E-02    0.191E-01
RMM:   8    -0.253242555993E+04    0.48884E-03   -0.21880E-03  7811   0.499E-02    0.123E-01
RMM:   9    -0.253242551674E+04    0.43190E-04   -0.23726E-03  8029   0.405E-02    0.797E-02
RMM:  10    -0.253242553422E+04   -0.17486E-04   -0.50801E-04  4859   0.296E-02
  62 F= -.25324255E+04 E0= -.25324088E+04  d E =-.264526E+00  mag=   244.0000
       N       E                     dE             d eps       ncg     rms          rms(c)
DAV:   1    -0.252968833501E+04    0.27372E+01   -0.52296E+02  6320   0.204E+01    0.616E+00
RMM:   2    -0.253198778672E+04   -0.22995E+01   -0.22895E+01  8081   0.769E+00    0.417E+00
RMM:   3    -0.253252390195E+04   -0.53612E+00   -0.47965E+00  9000   0.213E+00    0.230E+00
RMM:   4    -0.253251175230E+04    0.12150E-01   -0.57577E-01  9416   0.698E-01    0.183E+00
RMM:   5    -0.253249237415E+04    0.19378E-01   -0.20513E-01  9939   0.307E-01    0.141E+00
RMM:   6    -0.253247697485E+04    0.15399E-01   -0.13293E-01  8994   0.308E-01    0.859E-01
RMM:   7    -0.253248109055E+04   -0.41157E-02   -0.60456E-02  9512   0.195E-01    0.404E-01
RMM:   8    -0.253247910632E+04    0.19842E-02   -0.99378E-03  9545   0.965E-02    0.268E-01
RMM:   9    -0.253247893098E+04    0.17533E-03   -0.85147E-03  9995   0.640E-02    0.164E-01
RMM:  10    -0.253247902200E+04   -0.91017E-04   -0.29625E-03  8684   0.441E-02    0.853E-02
RMM:  11    -0.253247903937E+04   -0.17369E-04   -0.60691E-04  4800   0.293E-02
  63 F= -.25324790E+04 E0= -.25324621E+04  d E =-.318032E+00  mag=   244.0000
       N       E                     dE             d eps       ncg     rms          rms(c)
DAV:   1    -0.253203504579E+04    0.44398E+00   -0.91328E+01  6720   0.852E+00    0.250E+00
RMM:   2    -0.253242337082E+04   -0.38833E+00   -0.38815E+00  8157   0.308E+00    0.157E+00
RMM:   3    -0.253250172165E+04   -0.78351E-01   -0.70043E-01  8829   0.804E-01    0.819E-01
RMM:   4    -0.253249931597E+04    0.24057E-02   -0.86475E-02  9024   0.287E-01    0.671E-01
RMM:   5    -0.253249691780E+04    0.23982E-02   -0.33496E-02  9728   0.126E-01    0.525E-01
RMM:   6    -0.253249437376E+04    0.25440E-02   -0.20274E-02  8890   0.122E-01    0.307E-01
RMM:   7    -0.253249488110E+04   -0.50734E-03   -0.82549E-03  9446   0.706E-02    0.139E-01
RMM:   8    -0.253249464235E+04    0.23875E-03   -0.12496E-03  6522   0.359E-02    0.863E-02
RMM:   9    -0.253249467559E+04   -0.33244E-04   -0.10224E-03  6186   0.330E-02    0.634E-02
RMM:  10    -0.253249470257E+04   -0.26974E-04   -0.27524E-04  4059   0.273E-02
  64 F= -.25324947E+04 E0= -.25324778E+04  d E =-.333695E+00  mag=   244.0000
       N       E                     dE             d eps       ncg     rms          rms(c)
DAV:   1    -0.253230204525E+04    0.19263E+00   -0.65135E+01  6400   0.726E+00    0.261E+00
RMM:   2    -0.253258211755E+04   -0.28007E+00   -0.30230E+00  8014   0.282E+00    0.178E+00
RMM:   3    -0.253265522882E+04   -0.73111E-01   -0.65444E-01  8930   0.789E-01    0.891E-01
RMM:   4    -0.253265219659E+04    0.30322E-02   -0.69224E-02  9539   0.263E-01    0.720E-01
RMM:   5    -0.253264879998E+04    0.33966E-02   -0.30457E-02  9499   0.133E-01    0.508E-01
RMM:   6    -0.253264847008E+04    0.32991E-03   -0.16050E-02  9148   0.102E-01    0.234E-01
RMM:   7    -0.253264868138E+04   -0.21130E-03   -0.40396E-03  8983   0.531E-02    0.133E-01
RMM:   8    -0.253264843978E+04    0.24160E-03   -0.11177E-03  6467   0.340E-02    0.831E-02
RMM:   9    -0.253264839703E+04    0.42746E-04   -0.74737E-04  5440   0.316E-02
  65 F= -.25326484E+04 E0= -.25326312E+04  d E =-.153694E+00  mag=   244.0000
       N       E                     dE             d eps       ncg     rms          rms(c)
DAV:   1    -0.253213926037E+04    0.50918E+00   -0.12203E+02  6480   0.994E+00    0.358E+00
RMM:   2    -0.253266820234E+04   -0.52894E+00   -0.56713E+00  7987   0.388E+00    0.249E+00
RMM:   3    -0.253280930553E+04   -0.14110E+00   -0.12651E+00  8961   0.109E+00    0.125E+00
RMM:   4    -0.253280396261E+04    0.53429E-02   -0.13802E-01  9666   0.361E-01    0.101E+00
RMM:   5    -0.253279766909E+04    0.62935E-02   -0.61101E-02  9570   0.184E-01    0.698E-01
RMM:   6    -0.253279732579E+04    0.34329E-03   -0.32261E-02  9257   0.144E-01    0.322E-01
RMM:   7    -0.253279784704E+04   -0.52124E-03   -0.85944E-03  9929   0.727E-02    0.188E-01
RMM:   8    -0.253279743217E+04    0.41486E-03   -0.27675E-03  8564   0.420E-02    0.115E-01
RMM:   9    -0.253279738701E+04    0.45164E-04   -0.17610E-03  7415   0.362E-02    0.718E-02
RMM:  10    -0.253279739330E+04   -0.62871E-05   -0.44153E-04  4637   0.299E-02
  66 F= -.25327974E+04 E0= -.25327798E+04  d E =-.302691E+00  mag=   244.0000
       N       E                     dE             d eps       ncg     rms          rms(c)
DAV:   1    -0.253019874273E+04    0.25986E+01   -0.48708E+02  6640   0.199E+01    0.743E+00
RMM:   2    -0.253229641556E+04   -0.20977E+01   -0.22400E+01  7790   0.789E+00    0.541E+00
RMM:   3    -0.253292198012E+04   -0.62556E+00   -0.56447E+00  8827   0.235E+00    0.262E+00
RMM:   4    -0.253290528048E+04    0.16700E-01   -0.61486E-01  9638   0.772E-01    0.230E+00
RMM:   5    -0.253288498424E+04    0.20296E-01   -0.24192E-01  9957   0.336E-01    0.159E+00
RMM:   6    -0.253287544725E+04    0.95370E-02   -0.13697E-01  9019   0.313E-01    0.738E-01
RMM:   7    -0.253287974668E+04   -0.42994E-02   -0.49309E-02  9939   0.168E-01    0.417E-01
RMM:   8    -0.253287781450E+04    0.19322E-02   -0.10355E-02  9819   0.887E-02    0.259E-01
RMM:   9    -0.253287751475E+04    0.29975E-03   -0.90587E-03  9965   0.662E-02    0.156E-01
RMM:  10    -0.253287754863E+04   -0.33881E-04   -0.22788E-03  7934   0.411E-02    0.928E-02
RMM:  11    -0.253287758063E+04   -0.31992E-04   -0.77865E-04  5266   0.319E-02
  67 F= -.25328776E+04 E0= -.25328591E+04  d E =-.382878E+00  mag=   244.0000
       N       E                     dE             d eps       ncg     rms          rms(c)
DAV:   1    -0.253257751009E+04    0.30004E+00   -0.58544E+01  6400   0.687E+00    0.240E+00
RMM:   2    -0.253283058339E+04   -0.25307E+00   -0.27618E+00  8189   0.265E+00    0.148E+00
RMM:   3    -0.253288957370E+04   -0.58990E-01   -0.52933E-01  8984   0.703E-01    0.768E-01
RMM:   4    -0.253288637396E+04    0.31997E-02   -0.55882E-02  9384   0.240E-01    0.627E-01
RMM:   5    -0.253288340347E+04    0.29705E-02   -0.25426E-02  9322   0.126E-01    0.439E-01
RMM:   6    -0.253288328753E+04    0.11594E-03   -0.13267E-02  9171   0.927E-02    0.198E-01
RMM:   7    -0.253288351812E+04   -0.23059E-03   -0.31213E-03  8522   0.479E-02    0.119E-01
RMM:   8    -0.253288333016E+04    0.18796E-03   -0.93849E-04  6047   0.346E-02    0.759E-02
RMM:   9    -0.253288333338E+04   -0.32233E-05   -0.50709E-04  4705   0.305E-02
  68 F= -.25328833E+04 E0= -.25328651E+04  d E =-.388631E+00  mag=   244.0000
       N       E                     dE             d eps       ncg     rms          rms(c)
DAV:   1    -0.253272714021E+04    0.15619E+00   -0.60277E+01  6320   0.691E+00    0.185E+00
RMM:   2    -0.253298485875E+04   -0.25772E+00   -0.25577E+00  8107   0.257E+00    0.102E+00
RMM:   3    -0.253303860032E+04   -0.53742E-01   -0.48569E-01  8795   0.672E-01    0.605E-01
RMM:   4    -0.253303918402E+04   -0.58370E-03   -0.64062E-02  9244   0.227E-01    0.509E-01
RMM:   5    -0.253303744419E+04    0.17398E-02   -0.22509E-02  9783   0.987E-02    0.366E-01
RMM:   6    -0.253303596287E+04    0.14813E-02   -0.15196E-02  8930   0.106E-01    0.193E-01
RMM:   7    -0.253303645905E+04   -0.49618E-03   -0.55468E-03  9301   0.565E-02    0.114E-01
RMM:   8    -0.253303625577E+04    0.20328E-03   -0.72635E-04  5468   0.344E-02    0.831E-02
RMM:   9    -0.253303622856E+04    0.27213E-04   -0.73981E-04  5307   0.294E-02
  69 F= -.25330362E+04 E0= -.25330178E+04  d E =-.152895E+00  mag=   244.0000
       N       E                     dE             d eps       ncg     rms          rms(c)
DAV:   1    -0.253047453808E+04    0.25617E+01   -0.54282E+02  6240   0.208E+01    0.580E+00
RMM:   2    -0.253282239762E+04   -0.23479E+01   -0.23342E+01  7963   0.791E+00    0.345E+00
RMM:   3    -0.253338931940E+04   -0.56692E+00   -0.51690E+00  8854   0.223E+00    0.202E+00
RMM:   4    -0.253339804244E+04   -0.87230E-02   -0.67840E-01  9325   0.740E-01    0.170E+00
RMM:   5    -0.253338204781E+04    0.15995E-01   -0.22371E-01 10023   0.310E-01    0.121E+00
RMM:   6    -0.253336653613E+04    0.15512E-01   -0.14295E-01  8931   0.325E-01    0.677E-01
RMM:   7    -0.253337196222E+04   -0.54261E-02   -0.64535E-02  9623   0.189E-01    0.414E-01
RMM:   8    -0.253337060443E+04    0.13578E-02   -0.10223E-02  9424   0.995E-02    0.287E-01
RMM:   9    -0.253337007892E+04    0.52551E-03   -0.84594E-03  9745   0.671E-02    0.188E-01
RMM:  10    -0.253337012990E+04   -0.50979E-04   -0.47283E-03  9580   0.530E-02    0.103E-01
RMM:  11    -0.253337020022E+04   -0.70318E-04   -0.96570E-04  5361   0.313E-02
  70 F= -.25333702E+04 E0= -.25333511E+04  d E =-.486867E+00  mag=   244.0000
       N       E                     dE             d eps       ncg     rms          rms(c)
DAV:   1    -0.252193353722E+04    0.11437E+02   -0.21703E+03  6720   0.417E+01    0.130E+01
RMM:   2    -0.253137867998E+04   -0.94451E+01   -0.94358E+01  7945   0.155E+01    0.937E+00
RMM:   3    -0.253351552536E+04   -0.21368E+01   -0.19497E+01  8802   0.438E+00    0.500E+00
RMM:   4    -0.253345429279E+04    0.61233E-01   -0.24489E+00  9252   0.157E+00    0.392E+00
RMM:   5    -0.253338072779E+04    0.73565E-01   -0.98652E-01  9882   0.653E-01    0.285E+00
RMM:   6    -0.253332710690E+04    0.53621E-01   -0.56043E-01  8949   0.652E-01    0.187E+00
RMM:   7    -0.253334297913E+04   -0.15872E-01   -0.21144E-01  9909   0.357E-01    0.103E+00
RMM:   8    -0.253333798905E+04    0.49901E-02   -0.39804E-02 10096   0.167E-01    0.565E-01
RMM:   9    -0.253333678001E+04    0.12090E-02   -0.36474E-02 10086   0.135E-01    0.400E-01
RMM:  10    -0.253333715048E+04   -0.37047E-03   -0.10327E-02 10313   0.754E-02    0.221E-01
RMM:  11    -0.253333729456E+04   -0.14408E-03   -0.30260E-03  8094   0.443E-02    0.142E-01
RMM:  12    -0.253333736582E+04   -0.71268E-04   -0.14547E-03  6578   0.410E-02    0.902E-02
RMM:  13    -0.253333740204E+04   -0.36216E-04   -0.10558E-03  5153   0.380E-02    0.647E-02
RMM:  14    -0.253333744999E+04   -0.47952E-04   -0.50814E-04  4612   0.362E-02
  71 F= -.25333374E+04 E0= -.25333177E+04  d E =-.454117E+00  mag=   244.0000
       N       E                     dE             d eps       ncg     rms          rms(c)
DAV:   1    -0.252913995696E+04    0.41974E+01   -0.83956E+02  6720   0.259E+01    0.798E+00
RMM:   2    -0.253273955443E+04   -0.35996E+01   -0.36062E+01  8023   0.969E+00    0.612E+00
RMM:   3    -0.253353705106E+04   -0.79750E+00   -0.72651E+00  8724   0.266E+00    0.260E+00
RMM:   4    -0.253351924194E+04    0.17809E-01   -0.97019E-01  9142   0.962E-01    0.201E+00
RMM:   5    -0.253349178327E+04    0.27459E-01   -0.37076E-01  9706   0.422E-01    0.153E+00
RMM:   6    -0.253347690741E+04    0.14876E-01   -0.18827E-01  9198   0.345E-01    0.868E-01
RMM:   7    -0.253348092904E+04   -0.40216E-02   -0.64891E-02  9952   0.194E-01    0.445E-01
RMM:   8    -0.253347988984E+04    0.10392E-02   -0.14757E-02 10000   0.102E-01    0.297E-01
RMM:   9    -0.253348022876E+04   -0.33892E-03   -0.90474E-03 10208   0.617E-02    0.174E-01
RMM:  10    -0.253348040155E+04   -0.17279E-03   -0.23780E-03  8268   0.436E-02    0.101E-01
RMM:  11    -0.253348049359E+04   -0.92042E-04   -0.10658E-03  5842   0.328E-02    0.787E-02
RMM:  12    -0.253348053120E+04   -0.37605E-04   -0.39597E-04  4353   0.332E-02
  72 F= -.25334805E+04 E0= -.25334610E+04  d E =-.597198E+00  mag=   244.0000
       N       E                     dE             d eps       ncg     rms          rms(c)
DAV:   1    -0.253266938956E+04    0.81110E+00   -0.21404E+02  6240   0.130E+01    0.342E+00
RMM:   2    -0.253356616691E+04   -0.89678E+00   -0.90952E+00  7969   0.488E+00    0.168E+00
RMM:   3    -0.253376268411E+04   -0.19652E+00   -0.18399E+00  8673   0.133E+00    0.112E+00
RMM:   4    -0.253376855008E+04   -0.58660E-02   -0.25075E-01  9302   0.450E-01    0.922E-01
RMM:   5    -0.253376270911E+04    0.58410E-02   -0.81538E-02  9902   0.190E-01    0.663E-01
RMM:   6    -0.253375739165E+04    0.53175E-02   -0.52802E-02  8888   0.196E-01    0.367E-01
RMM:   7    -0.253375917594E+04   -0.17843E-02   -0.19807E-02  9718   0.106E-01    0.236E-01
RMM:   8    -0.253375867248E+04    0.50346E-03   -0.34097E-03  8381   0.533E-02    0.159E-01
RMM:   9    -0.253375854189E+04    0.13059E-03   -0.27939E-03  8108   0.417E-02    0.911E-02
[...]
RMM:   9    -0.254655134180E+04    0.28392E-03   -0.40888E-03  8977   0.471E-02    0.157E-01
RMM:  10    -0.254655130721E+04    0.34598E-04   -0.19537E-03  7671   0.405E-02    0.952E-02
RMM:  11    -0.254655135925E+04   -0.52040E-04   -0.74157E-04  5178   0.313E-02
 142 F= -.25465514E+04 E0= -.25465293E+04  d E =-.849853E+00  mag=   244.0000
       N       E                     dE             d eps       ncg     rms          rms(c)
DAV:   1    -0.253634676260E+04    0.10205E+02   -0.14847E+03  6480   0.346E+01    0.165E+01
RMM:   2    -0.254384025023E+04   -0.74935E+01   -0.70334E+01  7579   0.150E+01    0.139E+01
RMM:   3    -0.254637674368E+04   -0.25365E+01   -0.21134E+01  8723   0.466E+00    0.532E+00
RMM:   4    -0.254635170194E+04    0.25042E-01   -0.24426E+00  9368   0.147E+00    0.427E+00
RMM:   5    -0.254628382475E+04    0.67877E-01   -0.68715E-01  9719   0.581E-01    0.314E+00
RMM:   6    -0.254624446861E+04    0.39356E-01   -0.28089E-01  9453   0.465E-01    0.199E+00
RMM:   7    -0.254624705338E+04   -0.25848E-02   -0.15876E-01  9413   0.306E-01    0.829E-01
RMM:   8    -0.254625006503E+04   -0.30117E-02   -0.40165E-02  9893   0.187E-01    0.524E-01
RMM:   9    -0.254624950502E+04    0.56001E-03   -0.15609E-02 10270   0.877E-02    0.341E-01
RMM:  10    -0.254624896930E+04    0.53572E-03   -0.80894E-03 10115   0.685E-02    0.214E-01
RMM:  11    -0.254624914001E+04   -0.17072E-03   -0.43046E-03  9314   0.501E-02    0.109E-01
RMM:  12    -0.254624920232E+04   -0.62304E-04   -0.91854E-04  6348   0.344E-02
 143 F= -.25462492E+04 E0= -.25462286E+04  d E =-.547696E+00  mag=   244.0000
       N       E                     dE             d eps       ncg     rms          rms(c)
DAV:   1    -0.254229945191E+04    0.39497E+01   -0.71586E+02  6480   0.239E+01    0.926E+00
RMM:   2    -0.254579233180E+04   -0.34929E+01   -0.33300E+01  8003   0.961E+00    0.556E+00
RMM:   3    -0.254671871261E+04   -0.92638E+00   -0.74622E+00  8684   0.266E+00    0.257E+00
RMM:   4    -0.254670453917E+04    0.14173E-01   -0.89615E-01  9089   0.915E-01    0.197E+00
RMM:   5    -0.254667199723E+04    0.32542E-01   -0.29500E-01  9631   0.397E-01    0.154E+00
RMM:   6    -0.254665924860E+04    0.12749E-01   -0.12188E-01  9684   0.274E-01    0.779E-01
RMM:   7    -0.254665956448E+04   -0.31588E-03   -0.52729E-02  9549   0.182E-01    0.436E-01
RMM:   8    -0.254666068933E+04   -0.11248E-02   -0.14607E-02 10185   0.981E-02    0.267E-01
RMM:   9    -0.254666076153E+04   -0.72199E-04   -0.50445E-03  9670   0.506E-02    0.195E-01
RMM:  10    -0.254666080110E+04   -0.39577E-04   -0.19358E-03  7834   0.374E-02    0.117E-01
RMM:  11    -0.254666088438E+04   -0.83281E-04   -0.13120E-03  6469   0.361E-02    0.687E-02
RMM:  12    -0.254666094679E+04   -0.62407E-04   -0.44964E-04  4484   0.325E-02
 144 F= -.25466609E+04 E0= -.25466392E+04  d E =-.959441E+00  mag=   244.0000
       N       E                     dE             d eps       ncg     rms          rms(c)
DAV:   1    -0.254618516370E+04    0.47572E+00   -0.15631E+02  6320   0.111E+01    0.374E+00
RMM:   2    -0.254688531848E+04   -0.70015E+00   -0.67573E+00  7748   0.450E+00    0.202E+00
RMM:   3    -0.254710329040E+04   -0.21797E+00   -0.18828E+00  8541   0.134E+00    0.111E+00
RMM:   4    -0.254710584297E+04   -0.25526E-02   -0.21886E-01  9683   0.396E-01    0.909E-01
RMM:   5    -0.254709947343E+04    0.63695E-02   -0.63081E-02  9854   0.169E-01    0.733E-01
RMM:   6    -0.254709486232E+04    0.46111E-02   -0.33953E-02  9073   0.150E-01    0.382E-01
RMM:   7    -0.254709540736E+04   -0.54505E-03   -0.15359E-02  9373   0.104E-01    0.195E-01
RMM:   8    -0.254709546554E+04   -0.58174E-04   -0.30118E-03  8513   0.459E-02    0.122E-01
RMM:   9    -0.254709541481E+04    0.50729E-04   -0.14734E-03  6859   0.367E-02    0.919E-02
RMM:  10    -0.254709542360E+04   -0.87894E-05   -0.48484E-04  4591   0.307E-02
 145 F= -.25470954E+04 E0= -.25470743E+04  d E =-.434477E+00  mag=   244.0000
       N       E                     dE             d eps       ncg     rms          rms(c)
DAV:   1    -0.254511629894E+04    0.19791E+01   -0.38702E+02  6400   0.174E+01    0.598E+00
RMM:   2    -0.254686713344E+04   -0.17508E+01   -0.16965E+01  7684   0.718E+00    0.341E+00
RMM:   3    -0.254743649268E+04   -0.56936E+00   -0.49509E+00  8564   0.219E+00    0.181E+00
RMM:   4    -0.254744161672E+04   -0.51240E-02   -0.57721E-01  9665   0.658E-01    0.147E+00
RMM:   5    -0.254742620986E+04    0.15407E-01   -0.17226E-01  9921   0.277E-01    0.118E+00
RMM:   6    -0.254741482484E+04    0.11385E-01   -0.88168E-02  9299   0.238E-01    0.629E-01
RMM:   7    -0.254741597040E+04   -0.11456E-02   -0.40892E-02  9451   0.166E-01    0.318E-01
RMM:   8    -0.254741630945E+04   -0.33905E-03   -0.89486E-03 10123   0.777E-02    0.197E-01
RMM:   9    -0.254741630929E+04    0.16071E-06   -0.43361E-03  9146   0.465E-02    0.141E-01
RMM:  10    -0.254741634824E+04   -0.38954E-04   -0.15167E-03  7209   0.379E-02    0.917E-02
RMM:  11    -0.254741640829E+04   -0.60055E-04   -0.73908E-04  4896   0.316E-02
 146 F= -.25474164E+04 E0= -.25473965E+04  d E =-.755462E+00  mag=   244.0000
       N       E                     dE             d eps       ncg     rms          rms(c)
DAV:   1    -0.254665463385E+04    0.76171E+00   -0.20375E+02  6640   0.126E+01    0.465E+00
RMM:   2    -0.254753714364E+04   -0.88251E+00   -0.82713E+00  7600   0.506E+00    0.238E+00
RMM:   3    -0.254784046298E+04   -0.30332E+00   -0.25711E+00  8513   0.159E+00    0.126E+00
RMM:   4    -0.254784482970E+04   -0.43667E-02   -0.30623E-01  9735   0.466E-01    0.103E+00
RMM:   5    -0.254783619586E+04    0.86338E-02   -0.84435E-02  9878   0.193E-01    0.766E-01
RMM:   6    -0.254782983404E+04    0.63618E-02   -0.46702E-02  9146   0.179E-01    0.424E-01
RMM:   7    -0.254783077961E+04   -0.94557E-03   -0.22578E-02  9582   0.116E-01    0.225E-01
RMM:   8    -0.254783074907E+04    0.30540E-04   -0.42109E-03  9197   0.563E-02    0.143E-01
RMM:   9    -0.254783070552E+04    0.43547E-04   -0.24165E-03  7741   0.395E-02    0.100E-01
RMM:  10    -0.254783072119E+04   -0.15666E-04   -0.58399E-04  4952   0.336E-02
 147 F= -.25478307E+04 E0= -.25478117E+04  d E =-.414313E+00  mag=   244.0000
       N       E                     dE             d eps       ncg     rms          rms(c)
DAV:   1    -0.254756606487E+04    0.26464E+00   -0.62658E+01  6240   0.699E+00    0.259E+00
RMM:   2    -0.254783924196E+04   -0.27318E+00   -0.25543E+00  7521   0.288E+00    0.135E+00
RMM:   3    -0.254793829707E+04   -0.99055E-01   -0.84109E-01  8470   0.914E-01    0.705E-01
RMM:   4    -0.254794069591E+04   -0.23988E-02   -0.10240E-01  9877   0.255E-01    0.582E-01
RMM:   5    -0.254793774897E+04    0.29469E-02   -0.26436E-02  9848   0.107E-01    0.429E-01
RMM:   6    -0.254793570089E+04    0.20481E-02   -0.16040E-02  9080   0.107E-01    0.239E-01
RMM:   7    -0.254793619673E+04   -0.49585E-03   -0.78253E-03  9414   0.682E-02    0.129E-01
RMM:   8    -0.254793609198E+04    0.10475E-03   -0.10138E-03  6200   0.357E-02    0.849E-02
RMM:   9    -0.254793604362E+04    0.48363E-04   -0.77693E-04  5128   0.330E-02
 148 F= -.25479360E+04 E0= -.25479176E+04  d E =-.519635E+00  mag=   244.0000
       N       E                     dE             d eps       ncg     rms          rms(c)
DAV:   1    -0.254637328953E+04    0.15628E+01   -0.24992E+02  6240   0.140E+01    0.519E+00
RMM:   2    -0.254748550397E+04   -0.11122E+01   -0.10482E+01  7555   0.579E+00    0.265E+00
RMM:   3    -0.254787810683E+04   -0.39260E+00   -0.33415E+00  8466   0.182E+00    0.144E+00
RMM:   4    -0.254788592794E+04   -0.78211E-02   -0.40232E-01  9814   0.511E-01    0.117E+00
RMM:   5    -0.254787209563E+04    0.13832E-01   -0.10119E-01  9871   0.219E-01    0.854E-01
RMM:   6    -0.254786406650E+04    0.80291E-02   -0.60039E-02  9043   0.204E-01    0.447E-01
RMM:   7    -0.254786559644E+04   -0.15299E-02   -0.27799E-02  9701   0.128E-01    0.249E-01
RMM:   8    -0.254786541888E+04    0.17756E-03   -0.52472E-03  9702   0.585E-02    0.160E-01
RMM:   9    -0.254786530001E+04    0.11888E-03   -0.28504E-03  8407   0.417E-02    0.109E-01
RMM:  10    -0.254786532276E+04   -0.22755E-04   -0.82389E-04  5765   0.337E-02
 149 F= -.25478653E+04 E0= -.25478480E+04  d E =-.448914E+00  mag=   244.0000
       N       E                     dE             d eps       ncg     rms          rms(c)
DAV:   1    -0.254714709811E+04    0.71820E+00   -0.13497E+02  6240   0.103E+01    0.409E+00
RMM:   2    -0.254773930174E+04   -0.59220E+00   -0.55480E+00  7438   0.430E+00    0.257E+00
RMM:   3    -0.254796303450E+04   -0.22373E+00   -0.18976E+00  8444   0.140E+00    0.113E+00
RMM:   4    -0.254796676674E+04   -0.37322E-02   -0.22677E-01  9769   0.385E-01    0.922E-01
RMM:   5    -0.254795872525E+04    0.80415E-02   -0.53872E-02  9791   0.159E-01    0.671E-01
RMM:   6    -0.254795404164E+04    0.46836E-02   -0.30399E-02  8891   0.150E-01    0.361E-01
RMM:   7    -0.254795474375E+04   -0.70211E-03   -0.14714E-02  9483   0.929E-02    0.181E-01
RMM:   8    -0.254795459161E+04    0.15214E-03   -0.25140E-03  8206   0.468E-02    0.125E-01
RMM:   9    -0.254795449165E+04    0.99962E-04   -0.12136E-03  6379   0.352E-02    0.906E-02
RMM:  10    -0.254795448411E+04    0.75436E-05   -0.42930E-04  4349   0.296E-02
 150 F= -.25479545E+04 E0= -.25479363E+04  d E =-.538076E+00  mag=   244.0000
       N       E                     dE             d eps       ncg     rms          rms(c)
DAV:   1    -0.254707979602E+04    0.87470E+00   -0.20450E+02  6560   0.127E+01    0.450E+00
RMM:   2    -0.254791983722E+04   -0.84004E+00   -0.78577E+00  7419   0.513E+00    0.269E+00
RMM:   3    -0.254822804371E+04   -0.30821E+00   -0.26469E+00  8486   0.168E+00    0.137E+00
RMM:   4    -0.254823460173E+04   -0.65580E-02   -0.32057E-01  9725   0.465E-01    0.110E+00
RMM:   5    -0.254822433004E+04    0.10272E-01   -0.75041E-02  9751   0.187E-01    0.782E-01
RMM:   6    -0.254821812558E+04    0.62045E-02   -0.42843E-02  8898   0.187E-01    0.460E-01
RMM:   7    -0.254821936515E+04   -0.12396E-02   -0.20405E-02  9396   0.109E-01    0.226E-01
RMM:   8    -0.254821921567E+04    0.14948E-03   -0.30613E-03  8266   0.579E-02    0.161E-01
RMM:   9    -0.254821902628E+04    0.18939E-03   -0.19096E-03  7536   0.417E-02    0.124E-01
RMM:  10    -0.254821901348E+04    0.12799E-04   -0.68562E-04  5372   0.329E-02
 151 F= -.25482190E+04 E0= -.25482017E+04  d E =-.264529E+00  mag=   244.0000
       N       E                     dE             d eps       ncg     rms          rms(c)
DAV:   1    -0.254815333010E+04    0.65696E-01   -0.15762E+01  6800   0.352E+00    0.123E+00
RMM:   2    -0.254821735448E+04   -0.64024E-01   -0.59646E-01  7383   0.144E+00    0.677E-01
RMM:   3    -0.254824207805E+04   -0.24724E-01   -0.21313E-01  8488   0.476E-01    0.372E-01
RMM:   4    -0.254824286110E+04   -0.78305E-03   -0.27038E-02  9762   0.129E-01    0.295E-01
RMM:   5    -0.254824200629E+04    0.85481E-03   -0.63297E-03  8700   0.563E-02    0.206E-01
RMM:   6    -0.254824162034E+04    0.38595E-03   -0.41189E-03  8750   0.605E-02    0.143E-01
RMM:   7    -0.254824170930E+04   -0.88961E-04   -0.13140E-03  6580   0.344E-02    0.640E-02
RMM:   8    -0.254824171080E+04   -0.14955E-05   -0.22721E-04  3972   0.321E-02
 152 F= -.25482417E+04 E0= -.25482246E+04  d E =-.287227E+00  mag=   244.0000
       N       E                     dE             d eps       ncg     rms          rms(c)
DAV:   1    -0.254765632301E+04    0.58539E+00   -0.12367E+02  6480   0.100E+01    0.436E+00
RMM:   2    -0.254820692099E+04   -0.55060E+00   -0.54380E+00  7468   0.428E+00    0.306E+00
RMM:   3    -0.254842798563E+04   -0.22106E+00   -0.19091E+00  8544   0.140E+00    0.131E+00
RMM:   4    -0.254843178591E+04   -0.38003E-02   -0.24345E-01  9626   0.417E-01    0.107E+00
RMM:   5    -0.254842467521E+04    0.71107E-02   -0.62061E-02  9719   0.181E-01    0.760E-01
RMM:   6    -0.254842168801E+04    0.29872E-02   -0.31310E-02  9029   0.157E-01    0.363E-01
RMM:   7    -0.254842246087E+04   -0.77286E-03   -0.11238E-02  9823   0.816E-02    0.198E-01
RMM:   8    -0.254842232362E+04    0.13725E-03   -0.22402E-03  7902   0.435E-02    0.124E-01
RMM:   9    -0.254842226467E+04    0.58956E-04   -0.13723E-03  6622   0.370E-02    0.891E-02
RMM:  10    -0.254842227319E+04   -0.85273E-05   -0.39763E-04  4328   0.302E-02
 153 F= -.25484223E+04 E0= -.25484055E+04  d E =-.180562E+00  mag=   244.0000
       N       E                     dE             d eps       ncg     rms          rms(c)
DAV:   1    -0.254842120742E+04    0.10572E-02   -0.40544E-01  7840   0.574E-01    0.246E-01
RMM:   2    -0.254842309880E+04   -0.18914E-02   -0.18298E-02  7471   0.253E-01    0.170E-01
RMM:   3    -0.254842393693E+04   -0.83812E-03   -0.72858E-03  8568   0.862E-02    0.740E-02
RMM:   4    -0.254842392680E+04    0.10129E-04   -0.75122E-04  5508   0.293E-02
 154 F= -.25484239E+04 E0= -.25484072E+04  d E =-.182216E+00  mag=   244.0000
       N       E                     dE             d eps       ncg     rms          rms(c)
DAV:   1    -0.254812870510E+04    0.29523E+00   -0.67991E+01  6640   0.738E+00    0.285E+00
RMM:   2    -0.254844959869E+04   -0.32089E+00   -0.28771E+00  7790   0.299E+00    0.166E+00
RMM:   3    -0.254855211421E+04   -0.10252E+00   -0.82483E-01  8622   0.899E-01    0.789E-01
RMM:   4    -0.254855384861E+04   -0.17344E-02   -0.10636E-01  9395   0.288E-01    0.641E-01
RMM:   5    -0.254855085918E+04    0.29894E-02   -0.26212E-02  9686   0.117E-01    0.492E-01
RMM:   6    -0.254854870588E+04    0.21533E-02   -0.14515E-02  8963   0.106E-01    0.251E-01
RMM:   7    -0.254854901018E+04   -0.30430E-03   -0.67785E-03  9200   0.696E-02    0.131E-01
RMM:   8    -0.254854902022E+04   -0.10037E-04   -0.10128E-03  6423   0.347E-02    0.968E-02
RMM:   9    -0.254854897878E+04    0.41437E-04   -0.31751E-04  4192   0.304E-02
 155 F= -.25485490E+04 E0= -.25485328E+04  d E =-.125052E+00  mag=   244.0000
       N       E                     dE             d eps       ncg     rms          rms(c)
DAV:   1    -0.254847831469E+04    0.70706E-01   -0.15561E+01  6800   0.353E+00    0.138E+00
RMM:   2    -0.254855229250E+04   -0.73978E-01   -0.66426E-01  7807   0.143E+00    0.775E-01
RMM:   3    -0.254857607083E+04   -0.23778E-01   -0.19077E-01  8684   0.430E-01    0.371E-01
RMM:   4    -0.254857651222E+04   -0.44138E-03   -0.24942E-02  9313   0.137E-01    0.301E-01
RMM:   5    -0.254857585674E+04    0.65548E-03   -0.60339E-03  8805   0.578E-02    0.230E-01
RMM:   6    -0.254857542126E+04    0.43547E-03   -0.35081E-03  8636   0.552E-02    0.121E-01
RMM:   7    -0.254857546468E+04   -0.43413E-04   -0.12458E-03  6691   0.365E-02    0.652E-02
RMM:   8    -0.254857548451E+04   -0.19831E-04   -0.24814E-04  3973   0.317E-02
 156 F= -.25485755E+04 E0= -.25485596E+04  d E =-.151558E+00  mag=   244.0000
       N       E                     dE             d eps       ncg     rms          rms(c)
DAV:   1    -0.254818056381E+04    0.39490E+00   -0.62041E+01  6640   0.705E+00    0.275E+00
RMM:   2    -0.254847426628E+04   -0.29370E+00   -0.26367E+00  7807   0.283E+00    0.160E+00
RMM:   3    -0.254856541976E+04   -0.91153E-01   -0.72725E-01  8619   0.841E-01    0.750E-01
RMM:   4    -0.254856687982E+04   -0.14601E-02   -0.94619E-02  9358   0.273E-01    0.602E-01
RMM:   5    -0.254856425708E+04    0.26227E-02   -0.23202E-02  9705   0.111E-01    0.459E-01
RMM:   6    -0.254856246815E+04    0.17889E-02   -0.12271E-02  8963   0.987E-02    0.236E-01
RMM:   7    -0.254856273783E+04   -0.26968E-03   -0.56287E-03  9197   0.637E-02    0.121E-01
RMM:   8    -0.254856274698E+04   -0.91487E-05   -0.79394E-04  5754   0.329E-02
 157 F= -.25485627E+04 E0= -.25485475E+04  d E =-.138820E+00  mag=   244.0000
       N       E                     dE             d eps       ncg     rms          rms(c)
DAV:   1    -0.254843720133E+04    0.12554E+00   -0.23277E+01  6640   0.432E+00    0.165E+00
RMM:   2    -0.254854814029E+04   -0.11094E+00   -0.99837E-01  7810   0.176E+00    0.917E-01
RMM:   3    -0.254858270506E+04   -0.34565E-01   -0.27849E-01  8587   0.524E-01    0.454E-01
RMM:   4    -0.254858316140E+04   -0.45635E-03   -0.34792E-02  9050   0.167E-01    0.370E-01
RMM:   5    -0.254858190142E+04    0.12600E-02   -0.77735E-03  9066   0.681E-02    0.282E-01
RMM:   6    -0.254858100352E+04    0.89791E-03   -0.45067E-03  8475   0.641E-02    0.147E-01
RMM:   7    -0.254858104297E+04   -0.39455E-04   -0.22828E-03  7883   0.456E-02    0.748E-02
RMM:   8    -0.254858104603E+04   -0.30541E-05   -0.23930E-04  3906   0.291E-02
 158 F= -.25485810E+04 E0= -.25485654E+04  d E =-.157119E+00  mag=   244.0000
       N       E                     dE             d eps       ncg     rms          rms(c)
DAV:   1    -0.254820713923E+04    0.37390E+00   -0.75014E+01  6400   0.779E+00    0.312E+00
RMM:   2    -0.254856630065E+04   -0.35916E+00   -0.34587E+00  7937   0.322E+00    0.196E+00
RMM:   3    -0.254867494692E+04   -0.10865E+00   -0.89392E-01  8688   0.929E-01    0.858E-01
RMM:   4    -0.254867513784E+04   -0.19092E-03   -0.10621E-01  9440   0.295E-01    0.694E-01
RMM:   5    -0.254867182227E+04    0.33156E-02   -0.27437E-02  9763   0.122E-01    0.541E-01
RMM:   6    -0.254866936694E+04    0.24553E-02   -0.15485E-02  8853   0.113E-01    0.283E-01
RMM:   7    -0.254866985767E+04   -0.49072E-03   -0.80164E-03  9253   0.757E-02    0.146E-01
RMM:   8    -0.254866980316E+04    0.54506E-04   -0.99102E-04  6395   0.349E-02
 159 F= -.25486698E+04 E0= -.25486547E+04  d E =-.887571E-01  mag=   244.0000
       N       E                     dE             d eps       ncg     rms          rms(c)
DAV:   1    -0.254861438623E+04    0.55471E-01   -0.10250E+01  6400   0.288E+00    0.119E+00
RMM:   2    -0.254866381354E+04   -0.49427E-01   -0.47803E-01  7887   0.120E+00    0.797E-01
RMM:   3    -0.254867993683E+04   -0.16123E-01   -0.13317E-01  8853   0.357E-01    0.336E-01
RMM:   4    -0.254868015659E+04   -0.21975E-03   -0.16747E-02  9386   0.111E-01    0.268E-01
RMM:   5    -0.254867974710E+04    0.40948E-03   -0.40295E-03  8695   0.494E-02    0.207E-01
RMM:   6    -0.254867950504E+04    0.24207E-03   -0.24827E-03  8189   0.497E-02    0.114E-01
RMM:   7    -0.254867958860E+04   -0.83566E-04   -0.93717E-04  6078   0.351E-02
 160 F= -.25486796E+04 E0= -.25486647E+04  d E =-.985426E-01  mag=   244.0000
       N       E                     dE             d eps       ncg     rms          rms(c)
DAV:   1    -0.254840478014E+04    0.27472E+00   -0.40794E+01  6320   0.575E+00    0.233E+00
RMM:   2    -0.254860312316E+04   -0.19834E+00   -0.19196E+00  7948   0.239E+00    0.150E+00
RMM:   3    -0.254866404370E+04   -0.60921E-01   -0.50053E-01  8755   0.689E-01    0.645E-01
RMM:   4    -0.254866443369E+04   -0.38999E-03   -0.61215E-02  9590   0.217E-01    0.521E-01
RMM:   5    -0.254866275854E+04    0.16752E-02   -0.15448E-02  9759   0.894E-02    0.401E-01
RMM:   6    -0.254866153320E+04    0.12253E-02   -0.93386E-03  8907   0.875E-02    0.209E-01
RMM:   7    -0.254866188836E+04   -0.35516E-03   -0.45658E-03  8927   0.567E-02    0.111E-01
RMM:   8    -0.254866182373E+04    0.64637E-04   -0.43489E-04  4636   0.324E-02
 161 F= -.25486618E+04 E0= -.25486473E+04  d E =-.807777E-01  mag=   244.0000
       N       E                     dE             d eps       ncg     rms          rms(c)
DAV:   1    -0.254853242493E+04    0.12946E+00   -0.23698E+01  6320   0.439E+00    0.184E+00
RMM:   2    -0.254864672348E+04   -0.11430E+00   -0.10948E+00  7881   0.183E+00    0.136E+00
RMM:   3    -0.254868199187E+04   -0.35268E-01   -0.28985E-01  8625   0.535E-01    0.534E-01
RMM:   4    -0.254868198154E+04    0.10337E-04   -0.34047E-02  9309   0.167E-01    0.420E-01
RMM:   5    -0.254868078615E+04    0.11954E-02   -0.83435E-03  9141   0.696E-02    0.338E-01
RMM:   6    -0.254867985694E+04    0.92921E-03   -0.51068E-03  8575   0.683E-02    0.179E-01
