       N       E                     dE             d eps       ncg     rms          rms(c)
DAV:   1     0.399496164151E+05    0.39950E+05   -0.85579E+05  6880   0.260E+03
DAV:   2     0.144031812359E+05   -0.25546E+05   -0.22765E+05  6640   0.687E+02
DAV:   3     0.342544707085E+04   -0.10978E+05   -0.97787E+04  6960   0.350E+02
DAV:   4    -0.157332771544E+04   -0.49988E+04   -0.46313E+04  9440   0.196E+02
DAV:   5    -0.276981098695E+04   -0.11965E+04   -0.11594E+04 11360   0.106E+02    0.204E+02
RMM:   6    -0.247951893692E+04    0.29029E+03   -0.66200E+03  8744   0.998E+01    0.320E+02
RMM:   7    -0.254213950127E+04   -0.62621E+02   -0.15846E+03  9339   0.323E+01    0.182E+02
RMM:   8    -0.244966397264E+04    0.92476E+02   -0.97986E+02  7272   0.498E+01    0.946E+01
RMM:   9    -0.251334294280E+04   -0.63679E+02   -0.62435E+02  8701   0.164E+01    0.708E+01
RMM:  10    -0.251404822288E+04   -0.70528E+00   -0.15230E+02  8480   0.122E+01    0.381E+01
RMM:  11    -0.250882910957E+04    0.52191E+01   -0.88722E+01  9024   0.795E+00    0.274E+01
RMM:  12    -0.250985463748E+04   -0.10255E+01   -0.41102E+01  9993   0.403E+00    0.225E+01
RMM:  13    -0.250935285933E+04    0.50178E+00   -0.86574E+00 10037   0.191E+00    0.212E+01
RMM:  14    -0.250947334149E+04   -0.12048E+00   -0.47932E+00  9026   0.160E+00    0.169E+01
RMM:  15    -0.250959177310E+04   -0.11843E+00   -0.19392E+00 10072   0.971E-01    0.130E+01
RMM:  16    -0.250919816992E+04    0.39360E+00   -0.10002E+00  9374   0.767E-01    0.103E+01
RMM:  17    -0.250885759176E+04    0.34058E+00   -0.19567E+00  9137   0.123E+00    0.592E+00
RMM:  18    -0.250887137008E+04   -0.13778E-01   -0.11578E+00  9883   0.769E-01    0.410E+00
RMM:  19    -0.250887287840E+04   -0.15083E-02   -0.18724E-01  9268   0.349E-01    0.307E+00
RMM:  20    -0.250888922728E+04   -0.16349E-01   -0.96405E-02  9004   0.220E-01    0.218E+00
RMM:  21    -0.250889374194E+04   -0.45147E-02   -0.52600E-02  8960   0.201E-01    0.133E+00
RMM:  22    -0.250888972375E+04    0.40182E-02   -0.37488E-02  8195   0.147E-01    0.789E-01
RMM:  23    -0.250888699411E+04    0.27296E-02   -0.36352E-02  8667   0.164E-01    0.367E-01
RMM:  24    -0.250888890404E+04   -0.19099E-02   -0.31882E-02  8605   0.122E-01    0.258E-01
RMM:  25    -0.250889000459E+04   -0.11006E-02   -0.11743E-02  7800   0.860E-02    0.141E-01
RMM:  26    -0.250889102845E+04   -0.10239E-02   -0.13833E-02  5234   0.566E-02    0.120E-01
RMM:  27    -0.250889140216E+04   -0.37371E-03   -0.57284E-03  6277   0.652E-02    0.556E-02
RMM:  28    -0.250889194735E+04   -0.54519E-03   -0.57123E-03  6602   0.541E-02    0.531E-02
RMM:  29    -0.250889220841E+04   -0.26106E-03   -0.26026E-03  4874   0.389E-02    0.548E-02
RMM:  30    -0.250889245041E+04   -0.24200E-03   -0.29538E-03  4461   0.342E-02    0.415E-02
RMM:  31    -0.250889260028E+04   -0.14987E-03   -0.16325E-03  4524   0.280E-02    0.230E-02
RMM:  32    -0.250889278175E+04   -0.18147E-03   -0.18388E-03  4427   0.254E-02    0.159E-02
RMM:  33    -0.250889288680E+04   -0.10506E-03   -0.99245E-04  4359   0.216E-02    0.115E-02
RMM:  34    -0.250889300076E+04   -0.11396E-03   -0.11285E-03  4354   0.190E-02    0.134E-02
RMM:  35    -0.250889306318E+04   -0.62415E-04   -0.60214E-04  4341   0.171E-02
   1 F= -.25088931E+04 E0= -.25088733E+04  d E =-.250889E+04  mag=   231.0544
       N       E                     dE             d eps       ncg     rms          rms(c)
DAV:   1    -0.250399790146E+04    0.48951E+01   -0.18249E+03  6320   0.349E+01    0.201E+01
RMM:   2    -0.251331376142E+04   -0.93159E+01   -0.10094E+02  7567   0.148E+01    0.137E+01
RMM:   3    -0.251608422624E+04   -0.27705E+01   -0.25240E+01  8509   0.475E+00    0.674E+00
RMM:   4    -0.251607657378E+04    0.76525E-02   -0.29643E+00  8242   0.197E+00    0.596E+00
RMM:   5    -0.251604413835E+04    0.32435E-01   -0.89676E-01  9756   0.663E-01    0.471E+00
RMM:   6    -0.251596643163E+04    0.77707E-01   -0.28451E-01  9071   0.484E-01    0.339E+00
RMM:   7    -0.251594846706E+04    0.17965E-01   -0.33676E-01  8752   0.495E-01    0.160E+00
RMM:   8    -0.251595852497E+04   -0.10058E-01   -0.84322E-02  9466   0.266E-01    0.790E-01
RMM:   9    -0.251595607228E+04    0.24527E-02   -0.22847E-02  9342   0.129E-01    0.562E-01
RMM:  10    -0.251595520240E+04    0.86988E-03   -0.11559E-02  9411   0.852E-02    0.328E-01
RMM:  11    -0.251595553043E+04   -0.32803E-03   -0.53666E-03  9175   0.534E-02    0.193E-01
RMM:  12    -0.251595578403E+04   -0.25359E-03   -0.10695E-03  5725   0.327E-02    0.127E-01
RMM:  13    -0.251595592389E+04   -0.13987E-03   -0.57892E-04  4875   0.347E-02    0.919E-02
RMM:  14    -0.251595603674E+04   -0.11285E-03   -0.44128E-04  4551   0.293E-02    0.540E-02
RMM:  15    -0.251595607389E+04   -0.37150E-04   -0.15885E-04  3839   0.266E-02
   2 F= -.25159561E+04 E0= -.25159386E+04  d E =-.706301E+01  mag=   235.9142
       N       E                     dE             d eps       ncg     rms          rms(c)
DAV:   1    -0.239383008342E+04    0.12213E+03   -0.12491E+04  6720   0.916E+01    0.108E+02
RMM:   2    -0.248849886263E+04   -0.94669E+02   -0.10080E+03  7620   0.410E+01    0.361E+01
RMM:   3    -0.250566220665E+04   -0.17163E+02   -0.19604E+02  8578   0.129E+01    0.254E+01
RMM:   4    -0.250224487823E+04    0.34173E+01   -0.23087E+01  8345   0.554E+00    0.203E+01
RMM:   5    -0.250049042967E+04    0.17544E+01   -0.10212E+01  9064   0.254E+00    0.144E+01
RMM:   6    -0.249951031458E+04    0.98012E+00   -0.99668E+00  8750   0.234E+00    0.819E+00
RMM:   7    -0.249957693183E+04   -0.66617E-01   -0.23064E+00  9841   0.127E+00    0.582E+00
RMM:   8    -0.249950529247E+04    0.71639E-01   -0.66114E-01  9586   0.617E-01    0.384E+00
RMM:   9    -0.249953460394E+04   -0.29311E-01   -0.54822E-01  9465   0.573E-01    0.242E+00
RMM:  10    -0.249952334607E+04    0.11258E-01   -0.93427E-02  9407   0.297E-01    0.126E+00
RMM:  11    -0.249952361064E+04   -0.26457E-03   -0.13362E-01  9442   0.270E-01    0.771E-01
RMM:  12    -0.249952583027E+04   -0.22196E-02   -0.42972E-02 10332   0.154E-01    0.667E-01
RMM:  13    -0.249952125648E+04    0.45738E-02   -0.11864E-02  8930   0.893E-02    0.316E-01
RMM:  14    -0.249952004583E+04    0.12107E-02   -0.16339E-02  8474   0.973E-02    0.171E-01
RMM:  15    -0.249952064139E+04   -0.59556E-03   -0.60042E-03  8290   0.607E-02    0.175E-01
RMM:  16    -0.249952045585E+04    0.18554E-03   -0.53073E-04  4524   0.352E-02    0.104E-01
RMM:  17    -0.249952038791E+04    0.67946E-04   -0.11935E-03  5748   0.379E-02    0.669E-02
RMM:  18    -0.249952043730E+04   -0.49395E-04   -0.38943E-04  4325   0.350E-02
   3 F= -.24995204E+04 E0= -.24994919E+04  d E =0.937263E+01  mag=   241.9369
       N       E                     dE             d eps       ncg     rms          rms(c)
DAV:   1    -0.243680804811E+04    0.62712E+02   -0.88303E+03  6480   0.804E+01    0.468E+01
RMM:   2    -0.250706520816E+04   -0.70257E+02   -0.85544E+02  7738   0.388E+01    0.447E+01
RMM:   3    -0.252630177236E+04   -0.19237E+02   -0.20019E+02  9050   0.123E+01    0.305E+01
RMM:   4    -0.252139588341E+04    0.49059E+01   -0.22432E+01  8834   0.470E+00    0.244E+01
RMM:   5    -0.251814862027E+04    0.32473E+01   -0.22794E+01  8956   0.379E+00    0.197E+01
RMM:   6    -0.251928160211E+04   -0.11330E+01   -0.25000E+01  9194   0.323E+00    0.111E+01
RMM:   7    -0.251908448929E+04    0.19711E+00   -0.34066E+00  8539   0.228E+00    0.757E+00
RMM:   8    -0.251810271674E+04    0.98177E+00   -0.60001E+00  8819   0.182E+00    0.479E+00
RMM:   9    -0.251812933525E+04   -0.26619E-01   -0.16669E+00 10117   0.778E-01    0.248E+00
RMM:  10    -0.251809931518E+04    0.30020E-01   -0.33009E-01  9100   0.380E-01    0.142E+00
RMM:  11    -0.251810262859E+04   -0.33134E-02   -0.15428E-01  9163   0.286E-01    0.910E-01
RMM:  12    -0.251810838975E+04   -0.57612E-02   -0.57164E-02  9914   0.156E-01    0.726E-01
RMM:  13    -0.251810736208E+04    0.10277E-02   -0.19321E-02  9022   0.973E-02    0.430E-01
RMM:  14    -0.251810805803E+04   -0.69596E-03   -0.16311E-02  8871   0.791E-02    0.239E-01
RMM:  15    -0.251810896230E+04   -0.90427E-03   -0.64505E-03  7801   0.551E-02    0.216E-01
RMM:  16    -0.251810905349E+04   -0.91193E-04   -0.21368E-03  4821   0.370E-02    0.145E-01
RMM:  17    -0.251810904461E+04    0.88803E-05   -0.16289E-03  5492   0.358E-02    0.658E-02
RMM:  18    -0.251810912199E+04   -0.77374E-04   -0.74864E-04  4575   0.330E-02
   4 F= -.25181091E+04 E0= -.25180905E+04  d E =-.921606E+01  mag=   238.0354
       N       E                     dE             d eps       ncg     rms          rms(c)
DAV:   1    -0.250340086948E+04    0.14708E+02   -0.23490E+03  6320   0.392E+01    0.300E+01
RMM:   2    -0.251632901125E+04   -0.12928E+02   -0.13295E+02  7742   0.162E+01    0.131E+01
RMM:   3    -0.251911090824E+04   -0.27819E+01   -0.27279E+01  8513   0.507E+00    0.968E+00
RMM:   4    -0.251911503659E+04   -0.41283E-02   -0.35090E+00  8793   0.188E+00    0.738E+00
RMM:   5    -0.251901668704E+04    0.98350E-01   -0.10111E+00  9834   0.715E-01    0.558E+00
RMM:   6    -0.251886446712E+04    0.15222E+00   -0.60992E-01  8711   0.726E-01    0.340E+00
RMM:   7    -0.251887345879E+04   -0.89917E-02   -0.46111E-01  9019   0.537E-01    0.162E+00
RMM:   8    -0.251886735521E+04    0.61036E-02   -0.63855E-02  8681   0.303E-01    0.982E-01
RMM:   9    -0.251886535610E+04    0.19991E-02   -0.42807E-02  9325   0.171E-01    0.589E-01
RMM:  10    -0.251886569190E+04   -0.33580E-03   -0.18859E-02 10042   0.966E-02    0.370E-01
RMM:  11    -0.251886562318E+04    0.68721E-04   -0.38975E-03  8662   0.509E-02    0.234E-01
RMM:  12    -0.251886578977E+04   -0.16659E-03   -0.23138E-03  7646   0.406E-02    0.130E-01
RMM:  13    -0.251886589729E+04   -0.10752E-03   -0.58522E-04  4759   0.324E-02    0.811E-02
RMM:  14    -0.251886594495E+04   -0.47653E-04   -0.27754E-04  4028   0.317E-02
   5 F= -.25188659E+04 E0= -.25188397E+04  d E =-.997288E+01  mag=   241.8503
       N       E                     dE             d eps       ncg     rms          rms(c)
DAV:   1    -0.251615378800E+04    0.27121E+01   -0.53965E+02  6560   0.191E+01    0.118E+01
RMM:   2    -0.251919699501E+04   -0.30432E+01   -0.31853E+01  7847   0.779E+00    0.656E+00
RMM:   3    -0.251984553813E+04   -0.64854E+00   -0.60707E+00  8900   0.229E+00    0.364E+00
RMM:   4    -0.251978131128E+04    0.64227E-01   -0.68748E-01  9152   0.805E-01    0.320E+00
RMM:   5    -0.251976184420E+04    0.19467E-01   -0.24850E-01  9847   0.377E-01    0.193E+00
RMM:   6    -0.251974384925E+04    0.17995E-01   -0.15839E-01  8889   0.311E-01    0.127E+00
RMM:   7    -0.251974746390E+04   -0.36146E-02   -0.50157E-02  9113   0.187E-01    0.566E-01
RMM:   8    -0.251974651846E+04    0.94544E-03   -0.13026E-02  8964   0.101E-01    0.437E-01
RMM:   9    -0.251974649976E+04    0.18704E-04   -0.78312E-03  8870   0.668E-02    0.388E-01
RMM:  10    -0.251974654902E+04   -0.49259E-04   -0.28069E-03  7581   0.408E-02    0.158E-01
RMM:  11    -0.251974660355E+04   -0.54535E-04   -0.58211E-04  4445   0.332E-02
   6 F= -.25197466E+04 E0= -.25197226E+04  d E =-.108535E+02  mag=   239.6754
       N       E                     dE             d eps       ncg     rms          rms(c)
DAV:   1    -0.251128427047E+04    0.84623E+01   -0.21183E+03  6480   0.408E+01    0.277E+01
RMM:   2    -0.252032820622E+04   -0.90439E+01   -0.12406E+02  7576   0.177E+01    0.181E+01
RMM:   3    -0.252333184489E+04   -0.30036E+01   -0.29485E+01  8602   0.554E+00    0.896E+00
RMM:   4    -0.252303164514E+04    0.30020E+00   -0.36648E+00  9144   0.207E+00    0.783E+00
RMM:   5    -0.252282246596E+04    0.20918E+00   -0.14663E+00  8950   0.102E+00    0.566E+00
RMM:   6    -0.252280535828E+04    0.17108E-01   -0.72238E-01  8839   0.740E-01    0.248E+00
RMM:   7    -0.252282075459E+04   -0.15396E-01   -0.21370E-01  9342   0.454E-01    0.157E+00
RMM:   8    -0.252281034670E+04    0.10408E-01   -0.72480E-02  9778   0.220E-01    0.741E-01
RMM:   9    -0.252280727569E+04    0.30710E-02   -0.44048E-02  9488   0.153E-01    0.452E-01
RMM:  10    -0.252280716001E+04    0.11568E-03   -0.11250E-02 10160   0.797E-02    0.294E-01
RMM:  11    -0.252280732628E+04   -0.16627E-03   -0.41915E-03  9377   0.447E-02    0.176E-01
RMM:  12    -0.252280742307E+04   -0.96798E-04   -0.10475E-03  6157   0.392E-02    0.115E-01
RMM:  13    -0.252280747549E+04   -0.52416E-04   -0.27997E-04  4084   0.311E-02
   7 F= -.25228075E+04 E0= -.25227813E+04  d E =-.306087E+01  mag=   241.9137
       N       E                     dE             d eps       ncg     rms          rms(c)
DAV:   1    -0.252274596079E+04    0.61462E-01   -0.24175E+01  7040   0.428E+00    0.283E+00
RMM:   2    -0.252282251834E+04   -0.76558E-01   -0.13276E+00  7645   0.179E+00    0.168E+00
RMM:   3    -0.252285406465E+04   -0.31546E-01   -0.33851E-01  8535   0.582E-01    0.840E-01
RMM:   4    -0.252285076553E+04    0.32991E-02   -0.37136E-02  8797   0.225E-01    0.686E-01
RMM:   5    -0.252284910077E+04    0.16648E-02   -0.16777E-02  8726   0.115E-01    0.632E-01
RMM:   6    -0.252284914291E+04   -0.42145E-04   -0.80164E-03  8732   0.658E-02    0.268E-01
RMM:   7    -0.252284933779E+04   -0.19487E-03   -0.25984E-03  7990   0.552E-02    0.144E-01
RMM:   8    -0.252284917206E+04    0.16573E-03   -0.65657E-04  5217   0.324E-02    0.104E-01
RMM:   9    -0.252284915464E+04    0.17420E-04   -0.51688E-04  4710   0.288E-02
   8 F= -.25228492E+04 E0= -.25228231E+04  d E =-.310255E+01  mag=   241.9904
       N       E                     dE             d eps       ncg     rms          rms(c)
DAV:   1    -0.251898468149E+04    0.38645E+01   -0.70077E+02  6960   0.229E+01    0.150E+01
RMM:   2    -0.252298006782E+04   -0.39954E+01   -0.34990E+01  7565   0.950E+00    0.891E+00
RMM:   3    -0.252428580964E+04   -0.13057E+01   -0.10003E+01  8710   0.307E+00    0.412E+00
RMM:   4    -0.252421341620E+04    0.72393E-01   -0.10542E+00  8851   0.112E+00    0.383E+00
RMM:   5    -0.252418573122E+04    0.27685E-01   -0.33239E-01  9912   0.420E-01    0.275E+00
RMM:   6    -0.252413735926E+04    0.48372E-01   -0.19998E-01  8546   0.403E-01    0.142E+00
RMM:   7    -0.252414035555E+04   -0.29963E-02   -0.99223E-02  9295   0.275E-01    0.884E-01
RMM:   8    -0.252414048607E+04   -0.13053E-03   -0.17846E-02  9616   0.118E-01    0.470E-01
RMM:   9    -0.252413916594E+04    0.13201E-02   -0.67626E-03  8777   0.755E-02    0.242E-01
RMM:  10    -0.252413875929E+04    0.40664E-03   -0.48842E-03  8859   0.541E-02    0.163E-01
RMM:  11    -0.252413876389E+04   -0.45926E-05   -0.10863E-03  6183   0.309E-02    0.977E-02
RMM:  12    -0.252413876794E+04   -0.40580E-05   -0.33991E-04  4190   0.300E-02
   9 F= -.25241388E+04 E0= -.25241134E+04  d E =-.128961E+01  mag=   241.9995
       N       E                     dE             d eps       ncg     rms          rms(c)
DAV:   1    -0.252411341305E+04    0.25351E-01   -0.45333E+00  7360   0.184E+00    0.118E+00
RMM:   2    -0.252413848550E+04   -0.25072E-01   -0.22745E-01  7743   0.737E-01    0.641E-01
RMM:   3    -0.252414653804E+04   -0.80525E-02   -0.61641E-02  8673   0.234E-01    0.276E-01
RMM:   4    -0.252414590361E+04    0.63443E-03   -0.55781E-03  7464   0.904E-02    0.246E-01
RMM:   5    -0.252414570918E+04    0.19443E-03   -0.18711E-03  6516   0.419E-02    0.162E-01
RMM:   6    -0.252414550798E+04    0.20120E-03   -0.10346E-03  5927   0.398E-02    0.964E-02
RMM:   7    -0.252414553104E+04   -0.23056E-04   -0.49425E-04  4692   0.332E-02
  10 F= -.25241455E+04 E0= -.25241200E+04  d E =-.129638E+01  mag=   241.9999
       N       E                     dE             d eps       ncg     rms          rms(c)
DAV:   1    -0.252261471850E+04    0.15308E+01   -0.47937E+02  6480   0.195E+01    0.106E+01
RMM:   2    -0.252460461079E+04   -0.19899E+01   -0.22524E+01  7627   0.787E+00    0.625E+00
RMM:   3    -0.252537553770E+04   -0.77093E+00   -0.64553E+00  8673   0.256E+00    0.271E+00
RMM:   4    -0.252534344825E+04    0.32089E-01   -0.70345E-01  9171   0.876E-01    0.260E+00
RMM:   5    -0.252403343038E+04    0.13100E+01   -0.22156E+01 10188   0.379E+00    0.185E+00
RMM:   6    -0.252497939979E+04   -0.94597E+00   -0.45508E+00  8364   0.138E+00    0.118E+00
RMM:   7    -0.252520135578E+04   -0.22196E+00   -0.12457E+00  8778   0.854E-01    0.564E-01
RMM:   8    -0.252526500791E+04   -0.63652E-01   -0.36468E-01  9463   0.452E-01    0.373E-01
RMM:   9    -0.252528416705E+04   -0.19159E-01   -0.12252E-01  8938   0.245E-01    0.233E-01
RMM:  10    -0.252529107036E+04   -0.69033E-02   -0.47972E-02  7940   0.144E-01    0.186E-01
RMM:  11    -0.252529525565E+04   -0.41853E-02   -0.35024E-02  6131   0.937E-02    0.127E-01
RMM:  12    -0.252529659730E+04   -0.13417E-02   -0.11589E-02  4613   0.573E-02    0.772E-02
RMM:  13    -0.252529677179E+04   -0.17449E-03   -0.14871E-03  4019   0.382E-02    0.701E-02
RMM:  14    -0.252529682936E+04   -0.57573E-04   -0.53819E-04  3958   0.274E-02
  11 F= -.25252968E+04 E0= -.25252718E+04  d E =-.115130E+01  mag=   242.0000
       N       E                     dE             d eps       ncg     rms          rms(c)
DAV:   1    -0.252470439226E+04    0.59238E+00   -0.13829E+02  6960   0.104E+01    0.580E+00
RMM:   2    -0.252528958770E+04   -0.58520E+00   -0.66650E+00  7695   0.419E+00    0.367E+00
RMM:   3    -0.252551130906E+04   -0.22172E+00   -0.18348E+00  8648   0.133E+00    0.154E+00
RMM:   4    -0.252550208877E+04    0.92203E-02   -0.20481E-01  9314   0.478E-01    0.146E+00
RMM:   5    -0.252549684229E+04    0.52465E-02   -0.64301E-02 10120   0.172E-01    0.104E+00
RMM:   6    -0.252548758313E+04    0.92592E-02   -0.40508E-02  8663   0.179E-01    0.584E-01
RMM:   7    -0.252548837783E+04   -0.79470E-03   -0.25620E-02  8966   0.130E-01    0.334E-01
RMM:   8    -0.252548829954E+04    0.78285E-04   -0.46916E-03  8421   0.611E-02    0.173E-01
RMM:   9    -0.252548800417E+04    0.29537E-03   -0.20764E-03  7514   0.426E-02    0.117E-01
RMM:  10    -0.252548797729E+04    0.26884E-04   -0.49956E-04  4634   0.301E-02
  12 F= -.25254880E+04 E0= -.25254637E+04  d E =-.134245E+01  mag=   242.0000
       N       E                     dE             d eps       ncg     rms          rms(c)
DAV:   1    -0.252391559420E+04    0.15724E+01   -0.45176E+02  6640   0.183E+01    0.797E+00
RMM:   2    -0.252605632915E+04   -0.21407E+01   -0.20956E+01  8147   0.672E+00    0.489E+00
RMM:   3    -0.252658446792E+04   -0.52814E+00   -0.45673E+00  8802   0.192E+00    0.264E+00
RMM:   4    -0.252654813119E+04    0.36337E-01   -0.47422E-01  9105   0.729E-01    0.215E+00
RMM:   5    -0.252653281804E+04    0.15313E-01   -0.18255E-01  9968   0.314E-01    0.164E+00
RMM:   6    -0.252651351358E+04    0.19304E-01   -0.12546E-01  8671   0.306E-01    0.969E-01
RMM:   7    -0.252651664389E+04   -0.31303E-02   -0.56033E-02  9320   0.201E-01    0.486E-01
RMM:   8    -0.252651525631E+04    0.13876E-02   -0.10030E-02  9242   0.893E-02    0.295E-01
RMM:   9    -0.252651484709E+04    0.40923E-03   -0.53980E-03  9210   0.540E-02    0.181E-01
RMM:  10    -0.252651481423E+04    0.32854E-04   -0.17938E-03  7113   0.372E-02    0.109E-01
RMM:  11    -0.252651480342E+04    0.10811E-04   -0.38848E-04  4254   0.307E-02
  13 F= -.25265148E+04 E0= -.25264920E+04  d E =-.102683E+01  mag=   242.0000
       N       E                     dE             d eps       ncg     rms          rms(c)
DAV:   1    -0.252567258229E+04    0.84223E+00   -0.19693E+02  6640   0.121E+01    0.533E+00
RMM:   2    -0.252664198115E+04   -0.96940E+00   -0.95832E+00  8265   0.439E+00    0.308E+00
RMM:   3    -0.252686107913E+04   -0.21910E+00   -0.18980E+00  8898   0.119E+00    0.170E+00
RMM:   4    -0.252684188326E+04    0.19196E-01   -0.18198E-01  9122   0.465E-01    0.136E+00
RMM:   5    -0.252683494682E+04    0.69364E-02   -0.84511E-02  9762   0.211E-01    0.105E+00
RMM:   6    -0.252682810544E+04    0.68414E-02   -0.56242E-02  8703   0.201E-01    0.610E-01
RMM:   7    -0.252682939049E+04   -0.12850E-02   -0.21290E-02  9413   0.126E-01    0.323E-01
RMM:   8    -0.252682878171E+04    0.60878E-03   -0.42461E-03  8247   0.577E-02    0.199E-01
RMM:   9    -0.252682865763E+04    0.12408E-03   -0.22624E-03  7591   0.387E-02    0.116E-01
RMM:  10    -0.252682863650E+04    0.21129E-04   -0.64386E-04  4725   0.318E-02
  14 F= -.25268286E+04 E0= -.25268073E+04  d E =-.134066E+01  mag=   242.0000
       N       E                     dE             d eps       ncg     rms          rms(c)
DAV:   1    -0.252536313383E+04    0.14655E+01   -0.38905E+02  6720   0.175E+01    0.101E+01
RMM:   2    -0.252711008571E+04   -0.17470E+01   -0.22070E+01  7762   0.738E+00    0.661E+00
RMM:   3    -0.252776591560E+04   -0.65583E+00   -0.63404E+00  8881   0.238E+00    0.321E+00
RMM:   4    -0.252771879077E+04    0.47125E-01   -0.69762E-01  9105   0.866E-01    0.281E+00
RMM:   5    -0.252768803045E+04    0.30760E-01   -0.26093E-01  9588   0.391E-01    0.188E+00
RMM:   6    -0.252767364582E+04    0.14385E-01   -0.16229E-01  8786   0.356E-01    0.109E+00
RMM:   7    -0.252767749498E+04   -0.38492E-02   -0.65469E-02  9770   0.210E-01    0.648E-01
RMM:   8    -0.252767493237E+04    0.25626E-02   -0.13631E-02  9448   0.962E-02    0.308E-01
RMM:   9    -0.252767407839E+04    0.85398E-03   -0.12008E-02  9145   0.883E-02    0.215E-01
RMM:  10    -0.252767413114E+04   -0.52747E-04   -0.24392E-03  8023   0.432E-02    0.161E-01
RMM:  11    -0.252767408684E+04    0.44300E-04   -0.48564E-04  4585   0.305E-02
  15 F= -.25276741E+04 E0= -.25276571E+04  d E =-.845450E+00  mag=   242.0000
       N       E                     dE             d eps       ncg     rms          rms(c)
DAV:   1    -0.252765951913E+04    0.14612E-01   -0.50202E+00  7760   0.198E+00    0.110E+00
RMM:   2    -0.252768285345E+04   -0.23334E-01   -0.29582E-01  8068   0.799E-01    0.710E-01
RMM:   3    -0.252769023626E+04   -0.73828E-02   -0.71709E-02  8960   0.237E-01    0.357E-01
RMM:   4    -0.252768941174E+04    0.82452E-03   -0.74559E-03  8717   0.955E-02    0.291E-01
RMM:   5    -0.252768902140E+04    0.39034E-03   -0.38379E-03  8132   0.500E-02    0.201E-01
RMM:   6    -0.252768891964E+04    0.10176E-03   -0.19966E-03  7418   0.462E-02    0.121E-01
RMM:   7    -0.252768892490E+04   -0.52614E-05   -0.43645E-04  4482   0.298E-02
  16 F= -.25276889E+04 E0= -.25276724E+04  d E =-.860288E+00  mag=   242.0000
       N       E                     dE             d eps       ncg     rms          rms(c)
DAV:   1    -0.252614180140E+04    0.15471E+01   -0.35432E+02  6640   0.165E+01    0.751E+00
RMM:   2    -0.252783012805E+04   -0.16883E+01   -0.17467E+01  8101   0.616E+00    0.432E+00
RMM:   3    -0.252824381663E+04   -0.41369E+00   -0.39291E+00  8937   0.177E+00    0.242E+00
RMM:   4    -0.252821009983E+04    0.33717E-01   -0.42674E-01  8893   0.682E-01    0.185E+00
RMM:   5    -0.252819347917E+04    0.16621E-01   -0.18733E-01  9584   0.330E-01    0.146E+00
RMM:   6    -0.252818608932E+04    0.73899E-02   -0.10131E-01  8979   0.262E-01    0.780E-01
RMM:   7    -0.252818787309E+04   -0.17838E-02   -0.34544E-02  9652   0.164E-01    0.442E-01
RMM:   8    -0.252818707121E+04    0.80188E-03   -0.89550E-03  9280   0.774E-02    0.247E-01
RMM:   9    -0.252818700451E+04    0.66703E-04   -0.40182E-03  8984   0.476E-02    0.148E-01
RMM:  10    -0.252818695234E+04    0.52169E-04   -0.70210E-04  4825   0.318E-02
  17 F= -.25281870E+04 E0= -.25281732E+04  d E =-.498027E+00  mag=   242.0000
       N       E                     dE             d eps       ncg     rms          rms(c)
DAV:   1    -0.252817388955E+04    0.13115E-01   -0.30761E+00  7120   0.153E+00    0.656E-01
RMM:   2    -0.252818812511E+04   -0.14236E-01   -0.15279E-01  8108   0.561E-01    0.360E-01
RMM:   3    -0.252819150343E+04   -0.33783E-02   -0.32971E-02  8785   0.160E-01    0.229E-01
RMM:   4    -0.252819110638E+04    0.39704E-03   -0.30732E-03  7054   0.632E-02    0.188E-01
RMM:   5    -0.252819090066E+04    0.20573E-03   -0.13591E-03  6044   0.363E-02    0.135E-01
RMM:   6    -0.252819083710E+04    0.63551E-04   -0.10782E-03  5962   0.407E-02    0.798E-02
RMM:   7    -0.252819086290E+04   -0.25799E-04   -0.36114E-04  4393   0.284E-02
  18 F= -.25281909E+04 E0= -.25281770E+04  d E =-.501938E+00  mag=   242.0000
       N       E                     dE             d eps       ncg     rms          rms(c)
DAV:   1    -0.252784196416E+04    0.34887E+00   -0.11210E+02  6800   0.968E+00    0.430E+00
RMM:   2    -0.252835622856E+04   -0.51426E+00   -0.66293E+00  8255   0.362E+00    0.284E+00
RMM:   3    -0.252851517655E+04   -0.15895E+00   -0.16809E+00  9203   0.110E+00    0.186E+00
RMM:   4    -0.252849462866E+04    0.20548E-01   -0.17911E-01  9088   0.415E-01    0.138E+00
RMM:   5    -0.252848475753E+04    0.98711E-02   -0.10064E-01  8875   0.261E-01    0.111E+00
RMM:   6    -0.252848644516E+04   -0.16876E-02   -0.46810E-02  9317   0.180E-01    0.508E-01
RMM:   7    -0.252848503027E+04    0.14149E-02   -0.82415E-03  8304   0.102E-01    0.337E-01
RMM:   8    -0.252848455663E+04    0.47363E-03   -0.12036E-02  8566   0.845E-02    0.230E-01
RMM:   9    -0.252848477800E+04   -0.22136E-03   -0.25208E-03  7618   0.460E-02    0.115E-01
RMM:  10    -0.252848469949E+04    0.78507E-04   -0.40395E-04  4296   0.278E-02
  19 F= -.25284847E+04 E0= -.25284713E+04  d E =-.293837E+00  mag=   242.0000
       N       E                     dE             d eps       ncg     rms          rms(c)
DAV:   1    -0.252848154100E+04    0.32370E-02   -0.10420E+00  7360   0.939E-01    0.430E-01
RMM:   2    -0.252848643068E+04   -0.48897E-02   -0.64199E-02  8236   0.363E-01    0.312E-01
RMM:   3    -0.252848795125E+04   -0.15206E-02   -0.16173E-02  8937   0.110E-01    0.193E-01
RMM:   4    -0.252848765608E+04    0.29517E-03   -0.13004E-03  5669   0.421E-02    0.143E-01
RMM:   5    -0.252848751389E+04    0.14219E-03   -0.11164E-03  5749   0.356E-02    0.136E-01
RMM:   6    -0.252848752418E+04   -0.10290E-04   -0.61428E-04  5122   0.333E-02
  20 F= -.25284875E+04 E0= -.25284741E+04  d E =-.296661E+00  mag=   242.0000
       N       E                     dE             d eps       ncg     rms          rms(c)
DAV:   1    -0.252814225480E+04    0.34526E+00   -0.10617E+02  6640   0.906E+00    0.400E+00
RMM:   2    -0.252859583208E+04   -0.45358E+00   -0.50344E+00  8182   0.327E+00    0.204E+00
RMM:   3    -0.252870420482E+04   -0.10837E+00   -0.10871E+00  8821   0.928E-01    0.119E+00
RMM:   4    -0.252869476854E+04    0.94363E-02   -0.11428E-01  8816   0.376E-01    0.924E-01
RMM:   5    -0.252868960156E+04    0.51670E-02   -0.60389E-02  9358   0.180E-01    0.763E-01
RMM:   6    -0.252868807797E+04    0.15236E-02   -0.30494E-02  9219   0.137E-01    0.401E-01
RMM:   7    -0.252868828099E+04   -0.20303E-03   -0.83709E-03  8920   0.819E-02    0.222E-01
RMM:   8    -0.252868793939E+04    0.34160E-03   -0.34251E-03  8045   0.494E-02    0.162E-01
RMM:   9    -0.252868797055E+04   -0.31158E-04   -0.10937E-03  5920   0.326E-02    0.759E-02
RMM:  10    -0.252868797889E+04   -0.83383E-05   -0.26238E-04  4048   0.295E-02
  21 F= -.25286880E+04 E0= -.25286745E+04  d E =-.200455E+00  mag=   242.0000
       N       E                     dE             d eps       ncg     rms          rms(c)
DAV:   1    -0.252868432895E+04    0.36416E-02   -0.14631E+00  7040   0.106E+00    0.467E-01
RMM:   2    -0.252869071544E+04   -0.63865E-02   -0.68844E-02  8177   0.388E-01    0.246E-01
RMM:   3    -0.252869228696E+04   -0.15715E-02   -0.15582E-02  8894   0.111E-01    0.143E-01
RMM:   4    -0.252869215804E+04    0.12892E-03   -0.14649E-03  5794   0.444E-02    0.108E-01
RMM:   5    -0.252869207626E+04    0.81789E-04   -0.66296E-04  4988   0.328E-02
  22 F= -.25286921E+04 E0= -.25286785E+04  d E =-.204552E+00  mag=   242.0000
       N       E                     dE             d eps       ncg     rms          rms(c)
DAV:   1    -0.252834504031E+04    0.34712E+00   -0.10065E+02  6240   0.845E+00    0.351E+00
RMM:   2    -0.252880520515E+04   -0.46016E+00   -0.44162E+00  8138   0.296E+00    0.155E+00
RMM:   3    -0.252889736321E+04   -0.92158E-01   -0.82516E-01  8885   0.779E-01    0.932E-01
RMM:   4    -0.252888970030E+04    0.76629E-02   -0.91361E-02  9153   0.305E-01    0.713E-01
RMM:   5    -0.252888446014E+04    0.52402E-02   -0.48121E-02  9167   0.159E-01    0.544E-01
RMM:   6    -0.252888386434E+04    0.59579E-03   -0.22793E-02  9287   0.124E-01    0.289E-01
RMM:   7    -0.252888389956E+04   -0.35217E-04   -0.50093E-03  8304   0.609E-02    0.192E-01
RMM:   8    -0.252888379178E+04    0.10778E-03   -0.20517E-03  7180   0.394E-02    0.105E-01
RMM:   9    -0.252888381684E+04   -0.25063E-04   -0.61842E-04  4875   0.304E-02
  23 F= -.25288838E+04 E0= -.25288701E+04  d E =-.191741E+00  mag=   242.0000
       N       E                     dE             d eps       ncg     rms          rms(c)
DAV:   1    -0.252882863582E+04    0.55156E-01   -0.14094E+01  6240   0.316E+00    0.133E+00
RMM:   2    -0.252889434869E+04   -0.65713E-01   -0.62871E-01  8095   0.114E+00    0.601E-01
RMM:   3    -0.252890814482E+04   -0.13796E-01   -0.12336E-01  8998   0.307E-01    0.359E-01
RMM:   4    -0.252890710311E+04    0.10417E-02   -0.13892E-02  9063   0.113E-01    0.275E-01
RMM:   5    -0.252890635953E+04    0.74357E-03   -0.65597E-03  8670   0.625E-02    0.235E-01
RMM:   6    -0.252890625973E+04    0.99800E-04   -0.32784E-03  8216   0.495E-02    0.111E-01
RMM:   7    -0.252890625864E+04    0.10894E-05   -0.58621E-04  4884   0.333E-02
  24 F= -.25289063E+04 E0= -.25288924E+04  d E =-.214182E+00  mag=   242.0000
       N       E                     dE             d eps       ncg     rms          rms(c)
DAV:   1    -0.252867343654E+04    0.23282E+00   -0.71826E+01  6080   0.725E+00    0.285E+00
RMM:   2    -0.252901415412E+04   -0.34072E+00   -0.35074E+00  8294   0.266E+00    0.179E+00
RMM:   3    -0.252909136922E+04   -0.77215E-01   -0.67401E-01  9071   0.695E-01    0.101E+00
RMM:   4    -0.252908213628E+04    0.92329E-02   -0.69421E-02  9647   0.255E-01    0.767E-01
RMM:   5    -0.252907678178E+04    0.53545E-02   -0.36931E-02  9292   0.144E-01    0.609E-01
RMM:   6    -0.252907587928E+04    0.90250E-03   -0.24409E-02  8943   0.120E-01    0.312E-01
RMM:   7    -0.252907571697E+04    0.16231E-03   -0.41272E-03  8146   0.687E-02    0.167E-01
RMM:   8    -0.252907553272E+04    0.18425E-03   -0.24924E-03  7169   0.454E-02    0.139E-01
RMM:   9    -0.252907555476E+04   -0.22048E-04   -0.52077E-04  4677   0.306E-02
  25 F= -.25290756E+04 E0= -.25290613E+04  d E =-.169296E+00  mag=   242.0000
       N       E                     dE             d eps       ncg     rms          rms(c)
DAV:   1    -0.252853728913E+04    0.53824E+00   -0.11469E+02  6080   0.915E+00    0.362E+00
RMM:   2    -0.252908209352E+04   -0.54480E+00   -0.55881E+00  8294   0.337E+00    0.233E+00
RMM:   3    -0.252920473195E+04   -0.12264E+00   -0.10688E+00  9078   0.879E-01    0.129E+00
RMM:   4    -0.252918997147E+04    0.14760E-01   -0.10978E-01  9655   0.319E-01    0.971E-01
RMM:   5    -0.252918139111E+04    0.85804E-02   -0.59349E-02  9303   0.184E-01    0.803E-01
RMM:   6    -0.252918012205E+04    0.12691E-02   -0.39048E-02  9033   0.149E-01    0.409E-01
RMM:   7    -0.252917983571E+04    0.28634E-03   -0.66172E-03  8675   0.870E-02    0.224E-01
RMM:   8    -0.252917955746E+04    0.27825E-03   -0.41212E-03  7721   0.559E-02    0.210E-01
RMM:   9    -0.252917961612E+04   -0.58659E-04   -0.11162E-03  6122   0.351E-02    0.828E-02
RMM:  10    -0.252917960402E+04    0.12099E-04   -0.23184E-04  3973   0.309E-02
  26 F= -.25291796E+04 E0= -.25291647E+04  d E =-.273345E+00  mag=   242.0000
       N       E                     dE             d eps       ncg     rms          rms(c)
DAV:   1    -0.252886096575E+04    0.31865E+00   -0.99615E+01  6320   0.852E+00    0.284E+00
RMM:   2    -0.252928910965E+04   -0.42814E+00   -0.44057E+00  8194   0.298E+00    0.156E+00
RMM:   3    -0.252937519920E+04   -0.86090E-01   -0.82968E-01  9169   0.768E-01    0.956E-01
RMM:   4    -0.252936627177E+04    0.89274E-02   -0.90526E-02  9600   0.266E-01    0.705E-01
RMM:   5    -0.252935985552E+04    0.64162E-02   -0.42430E-02  9044   0.158E-01    0.608E-01
RMM:   6    -0.252935916391E+04    0.69161E-03   -0.24303E-02  9264   0.117E-01    0.302E-01
RMM:   7    -0.252935895893E+04    0.20498E-03   -0.47648E-03  8081   0.684E-02    0.188E-01
RMM:   8    -0.252935885107E+04    0.10786E-03   -0.27857E-03  7365   0.471E-02    0.151E-01
RMM:   9    -0.252935886728E+04   -0.16203E-04   -0.48550E-04  4595   0.311E-02
  27 F= -.25293589E+04 E0= -.25293436E+04  d E =-.179263E+00  mag=   242.0000
       N       E                     dE             d eps       ncg     rms          rms(c)
DAV:   1    -0.252899963887E+04    0.35921E+00   -0.90364E+01  6240   0.810E+00    0.268E+00
RMM:   2    -0.252938964020E+04   -0.39000E+00   -0.40091E+00  8136   0.290E+00    0.150E+00
RMM:   3    -0.252947207535E+04   -0.82435E-01   -0.78999E-01  9179   0.770E-01    0.912E-01
RMM:   4    -0.252946449897E+04    0.75764E-02   -0.86857E-02  9568   0.258E-01    0.684E-01
RMM:   5    -0.252945870126E+04    0.57977E-02   -0.36763E-02  9198   0.148E-01    0.597E-01
RMM:   6    -0.252945760269E+04    0.10986E-02   -0.22429E-02  9209   0.114E-01    0.289E-01
RMM:   7    -0.252945753526E+04    0.67423E-04   -0.50338E-03  8253   0.698E-02    0.194E-01
RMM:   8    -0.252945742687E+04    0.10840E-03   -0.23540E-03  7248   0.456E-02    0.162E-01
RMM:   9    -0.252945743858E+04   -0.11716E-04   -0.47557E-04  4575   0.308E-02
  28 F= -.25294574E+04 E0= -.25294418E+04  d E =-.277835E+00  mag=   242.0000
       N       E                     dE             d eps       ncg     rms          rms(c)
DAV:   1    -0.252758920957E+04    0.18682E+01   -0.36060E+02  6320   0.162E+01    0.542E+00
RMM:   2    -0.252916842114E+04   -0.15792E+01   -0.16218E+01  8136   0.582E+00    0.327E+00
RMM:   3    -0.252950152115E+04   -0.33310E+00   -0.31866E+00  9165   0.157E+00    0.192E+00
RMM:   4    -0.252946836361E+04    0.33158E-01   -0.34426E-01  9464   0.529E-01    0.143E+00
RMM:   5    -0.252944418827E+04    0.24175E-01   -0.15229E-01  9157   0.307E-01    0.127E+00
RMM:   6    -0.252943921820E+04    0.49701E-02   -0.95526E-02  9271   0.231E-01    0.637E-01
RMM:   7    -0.252943891096E+04    0.30725E-03   -0.21898E-02  9159   0.146E-01    0.407E-01
RMM:   8    -0.252943837284E+04    0.53811E-03   -0.99915E-03  8926   0.834E-02    0.355E-01
RMM:   9    -0.252943851355E+04   -0.14071E-03   -0.34493E-03  8351   0.483E-02    0.136E-01
RMM:  10    -0.252943849514E+04    0.18409E-04   -0.63093E-04  4850   0.314E-02
  29 F= -.25294385E+04 E0= -.25294223E+04  d E =-.258891E+00  mag=   242.0000
       N       E                     dE             d eps       ncg     rms          rms(c)
DAV:   1    -0.252879730146E+04    0.64121E+00   -0.13826E+02  6240   0.100E+01    0.325E+00
RMM:   2    -0.252938708942E+04   -0.58979E+00   -0.61557E+00  8187   0.355E+00    0.175E+00
RMM:   3    -0.252950879980E+04   -0.12171E+00   -0.11795E+00  9153   0.935E-01    0.111E+00
RMM:   4    -0.252949645180E+04    0.12348E-01   -0.12399E-01  9382   0.326E-01    0.873E-01
RMM:   5    -0.252948825792E+04    0.81939E-02   -0.54525E-02  9211   0.174E-01    0.745E-01
RMM:   6    -0.252948530727E+04    0.29507E-02   -0.34469E-02  9051   0.141E-01    0.364E-01
RMM:   7    -0.252948523062E+04    0.76648E-04   -0.96602E-03  8891   0.954E-02    0.267E-01
RMM:   8    -0.252948504407E+04    0.18656E-03   -0.37053E-03  7643   0.535E-02    0.186E-01
RMM:   9    -0.252948509795E+04   -0.53884E-04   -0.10112E-03  5843   0.343E-02    0.806E-02
RMM:  10    -0.252948511306E+04   -0.15110E-04   -0.28221E-04  4077   0.298E-02
  30 F= -.25294851E+04 E0= -.25294692E+04  d E =-.305509E+00  mag=   242.0000
       N       E                     dE             d eps       ncg     rms          rms(c)
DAV:   1    -0.252949142473E+04   -0.63268E-02   -0.10627E+01  6320   0.279E+00    0.784E-01
RMM:   2    -0.252953750386E+04   -0.46079E-01   -0.48147E-01  8152   0.995E-01    0.415E-01
RMM:   3    -0.252954720071E+04   -0.96969E-02   -0.93983E-02  9065   0.262E-01    0.294E-01
RMM:   4    -0.252954651112E+04    0.68959E-03   -0.99161E-03  8787   0.902E-02    0.237E-01
RMM:   5    -0.252954586298E+04    0.64814E-03   -0.37753E-03  7884   0.493E-02    0.197E-01
RMM:   6    -0.252954553483E+04    0.32815E-03   -0.30826E-03  7788   0.505E-02    0.972E-02
RMM:   7    -0.252954552431E+04    0.10518E-04   -0.76932E-04  5494   0.349E-02
  31 F= -.25295455E+04 E0= -.25295294E+04  d E =-.604112E-01  mag=   242.0000
       N       E                     dE             d eps       ncg     rms          rms(c)
DAV:   1    -0.252920848433E+04    0.33705E+00   -0.95655E+01  6160   0.836E+00    0.241E+00
RMM:   2    -0.252962981363E+04   -0.42133E+00   -0.43885E+00  8169   0.300E+00    0.129E+00
RMM:   3    -0.252971909912E+04   -0.89285E-01   -0.86318E-01  9217   0.791E-01    0.901E-01
RMM:   4    -0.252971307241E+04    0.60267E-02   -0.96921E-02  9668   0.263E-01    0.718E-01
RMM:   5    -0.252970734185E+04    0.57306E-02   -0.34045E-02  9414   0.139E-01    0.573E-01
RMM:   6    -0.252970486481E+04    0.24770E-02   -0.26367E-02  8768   0.128E-01    0.283E-01
RMM:   7    -0.252970508392E+04   -0.21911E-03   -0.79006E-03  9059   0.857E-02    0.203E-01
RMM:   8    -0.252970488289E+04    0.20103E-03   -0.19760E-03  7189   0.409E-02    0.147E-01
RMM:   9    -0.252970487977E+04    0.31200E-05   -0.74647E-04  5240   0.333E-02
  32 F= -.25297049E+04 E0= -.25296883E+04  d E =-.219767E+00  mag=   242.0000
       N       E                     dE             d eps       ncg     rms          rms(c)
DAV:   1    -0.252781136069E+04    0.18935E+01   -0.38245E+02  6080   0.167E+01    0.516E+00
RMM:   2    -0.252955880454E+04   -0.17474E+01   -0.18116E+01  8167   0.610E+00    0.298E+00
RMM:   3    -0.252991827708E+04   -0.35947E+00   -0.34690E+00  9210   0.161E+00    0.193E+00
RMM:   4    -0.252988889973E+04    0.29377E-01   -0.38028E-01  9701   0.534E-01    0.149E+00
RMM:   5    -0.252986542326E+04    0.23476E-01   -0.14588E-01  9438   0.290E-01    0.123E+00
RMM:   6    -0.252985588017E+04    0.95431E-02   -0.10107E-01  8929   0.249E-01    0.623E-01
RMM:   7    -0.252985671203E+04   -0.83187E-03   -0.31714E-02  9453   0.167E-01    0.416E-01
RMM:   8    -0.252985598514E+04    0.72690E-03   -0.86861E-03  9273   0.804E-02    0.350E-01
RMM:   9    -0.252985611341E+04   -0.12827E-03   -0.40556E-03  8929   0.470E-02    0.145E-01
RMM:  10    -0.252985614498E+04   -0.31569E-04   -0.90971E-04  5579   0.326E-02
  33 F= -.25298561E+04 E0= -.25298388E+04  d E =-.371032E+00  mag=   242.0000
       N       E                     dE             d eps       ncg     rms          rms(c)
DAV:   1    -0.252995944490E+04   -0.10333E+00   -0.71702E+00  6800   0.226E+00    0.124E+00
RMM:   2    -0.252999460633E+04   -0.35161E-01   -0.37438E-01  8313   0.811E-01    0.538E-01
RMM:   3    -0.253000023100E+04   -0.56247E-02   -0.64957E-02  9115   0.213E-01    0.356E-01
RMM:   4    -0.252999948821E+04    0.74279E-03   -0.79407E-03  8875   0.839E-02    0.238E-01
RMM:   5    -0.252999913718E+04    0.35103E-03   -0.36851E-03  7911   0.547E-02    0.241E-01
RMM:   6    -0.252999911423E+04    0.22958E-04   -0.11600E-03  5986   0.405E-02    0.921E-02
RMM:   7    -0.252999911875E+04   -0.45196E-05   -0.41122E-04  4429   0.348E-02
  34 F= -.25299991E+04 E0= -.25299816E+04  d E =-.142974E+00  mag=   242.0000
       N       E                     dE             d eps       ncg     rms          rms(c)
DAV:   1    -0.252978001648E+04    0.21910E+00   -0.63632E+01  6320   0.671E+00    0.428E+00
RMM:   2    -0.253009401831E+04   -0.31400E+00   -0.33546E+00  8312   0.242E+00    0.163E+00
RMM:   3    -0.253013980742E+04   -0.45789E-01   -0.56611E-01  9151   0.628E-01    0.107E+00
RMM:   4    -0.253013315624E+04    0.66512E-02   -0.68288E-02  9285   0.244E-01    0.696E-01
RMM:   5    -0.253013014291E+04    0.30133E-02   -0.34373E-02  9080   0.153E-01    0.700E-01
RMM:   6    -0.253013029529E+04   -0.15238E-03   -0.11816E-02  9448   0.917E-02    0.280E-01
RMM:   7    -0.253013009718E+04    0.19810E-03   -0.31472E-03  7954   0.546E-02    0.180E-01
RMM:   8    -0.253013010282E+04   -0.56404E-05   -0.23567E-03  7327   0.433E-02    0.125E-01
RMM:   9    -0.253013010458E+04   -0.17579E-05   -0.29763E-04  4140   0.293E-02
  35 F= -.25301301E+04 E0= -.25301122E+04  d E =-.273960E+00  mag=   242.0000
       N       E                     dE             d eps       ncg     rms          rms(c)
DAV:   1    -0.253012107326E+04    0.90296E-02   -0.40622E+00  6720   0.169E+00    0.106E+00
RMM:   2    -0.253014102868E+04   -0.19955E-01   -0.21723E-01  8263   0.614E-01    0.441E-01
RMM:   3    -0.253014368419E+04   -0.26555E-02   -0.34955E-02  8901   0.162E-01    0.287E-01
RMM:   4    -0.253014320091E+04    0.48328E-03   -0.38836E-03  7787   0.632E-02    0.176E-01
RMM:   5    -0.253014297963E+04    0.22128E-03   -0.20218E-03  6701   0.456E-02    0.195E-01
RMM:   6    -0.253014297188E+04    0.77510E-05   -0.55711E-04  4820   0.345E-02
  36 F= -.25301430E+04 E0= -.25301251E+04  d E =-.286827E+00  mag=   242.0000
       N       E                     dE             d eps       ncg     rms          rms(c)
DAV:   1    -0.253020185162E+04   -0.58872E-01   -0.87181E+00  6800   0.262E+00    0.116E+00
RMM:   2    -0.253024334851E+04   -0.41497E-01   -0.42822E-01  8281   0.979E-01    0.663E-01
RMM:   3    -0.253025305387E+04   -0.97054E-02   -0.88062E-02  8953   0.271E-01    0.350E-01
RMM:   4    -0.253025231608E+04    0.73779E-03   -0.94323E-03  8712   0.102E-01    0.271E-01
RMM:   5    -0.253025189534E+04    0.42074E-03   -0.32026E-03  8108   0.462E-02    0.231E-01
RMM:   6    -0.253025158994E+04    0.30539E-03   -0.20704E-03  7190   0.478E-02    0.131E-01
RMM:   7    -0.253025159841E+04   -0.84629E-05   -0.78545E-04  5523   0.360E-02
  37 F= -.25302516E+04 E0= -.25302337E+04  d E =-.108627E+00  mag=   242.0000
       N       E                     dE             d eps       ncg     rms          rms(c)
DAV:   1    -0.252997369194E+04    0.27790E+00   -0.78110E+01  6560   0.786E+00    0.363E+00
RMM:   2    -0.253034844375E+04   -0.37475E+00   -0.38805E+00  8250   0.294E+00    0.218E+00
RMM:   3    -0.253043804390E+04   -0.89600E-01   -0.80975E-01  9057   0.823E-01    0.112E+00
RMM:   4    -0.253043190455E+04    0.61394E-02   -0.91644E-02  9342   0.300E-01    0.833E-01
RMM:   5    -0.253042847014E+04    0.34344E-02   -0.32414E-02  9537   0.142E-01    0.817E-01
RMM:   6    -0.253042628713E+04    0.21830E-02   -0.17343E-02  9111   0.101E-01    0.444E-01
RMM:   7    -0.253042632225E+04   -0.35121E-04   -0.76446E-03  8915   0.854E-02    0.186E-01
RMM:   8    -0.253042636678E+04   -0.44528E-04   -0.19837E-03  7873   0.387E-02    0.171E-01
RMM:   9    -0.253042631267E+04    0.54110E-04   -0.42593E-04  4472   0.291E-02
  38 F= -.25304263E+04 E0= -.25304083E+04  d E =-.283341E+00  mag=   242.0000
       N       E                     dE             d eps       ncg     rms          rms(c)
DAV:   1    -0.253041326885E+04    0.13098E-01   -0.33978E+00  6960   0.164E+00    0.739E-01
RMM:   2    -0.253043000555E+04   -0.16737E-01   -0.17171E-01  8264   0.614E-01    0.404E-01
RMM:   3    -0.253043409759E+04   -0.40920E-02   -0.36879E-02  9032   0.172E-01    0.221E-01
RMM:   4    -0.253043382402E+04    0.27357E-03   -0.41855E-03  8444   0.631E-02    0.170E-01
RMM:   5    -0.253043365364E+04    0.17038E-03   -0.11759E-03  6220   0.334E-02    0.150E-01
RMM:   6    -0.253043356269E+04    0.90949E-04   -0.83795E-04  5694   0.364E-02
  39 F= -.25304336E+04 E0= -.25304156E+04  d E =-.290591E+00  mag=   242.0000
       N       E                     dE             d eps       ncg     rms          rms(c)
DAV:   1    -0.253040928784E+04    0.24366E-01   -0.25896E+01  6240   0.449E+00    0.178E+00
RMM:   2    -0.253053357956E+04   -0.12429E+00   -0.12133E+00  8308   0.162E+00    0.111E+00
RMM:   3    -0.253055762483E+04   -0.24045E-01   -0.20455E-01  8942   0.421E-01    0.560E-01
RMM:   4    -0.253055549959E+04    0.21252E-02   -0.23134E-02  9422   0.153E-01    0.436E-01
RMM:   5    -0.253055427819E+04    0.12214E-02   -0.92481E-03  9428   0.773E-02    0.404E-01
RMM:   6    -0.253055356588E+04    0.71232E-03   -0.59881E-03  8535   0.663E-02    0.200E-01
RMM:   7    -0.253055368122E+04   -0.11534E-03   -0.20376E-03  7534   0.469E-02    0.991E-02
RMM:   8    -0.253055364267E+04    0.38555E-04   -0.29184E-04  4083   0.285E-02
  40 F= -.25305536E+04 E0= -.25305356E+04  d E =-.120080E+00  mag=   242.0000
       N       E                     dE             d eps       ncg     rms          rms(c)
DAV:   1    -0.253008562390E+04    0.46806E+00   -0.10200E+02  6320   0.892E+00    0.357E+00
RMM:   2    -0.253057680779E+04   -0.49118E+00   -0.47850E+00  8313   0.323E+00    0.229E+00
RMM:   3    -0.253067230622E+04   -0.95498E-01   -0.81181E-01  8938   0.843E-01    0.115E+00
RMM:   4    -0.253066355758E+04    0.87486E-02   -0.89773E-02  9524   0.306E-01    0.895E-01
RMM:   5    -0.253065885324E+04    0.47043E-02   -0.35991E-02  9572   0.151E-01    0.844E-01
RMM:   6    -0.253065577406E+04    0.30792E-02   -0.23803E-02  8726   0.128E-01    0.432E-01
RMM:   7    -0.253065630094E+04   -0.52688E-03   -0.93727E-03  9135   0.914E-02    0.211E-01
RMM:   8    -0.253065619311E+04    0.10783E-03   -0.20002E-03  7625   0.418E-02    0.203E-01
RMM:   9    -0.253065609279E+04    0.10031E-03   -0.56168E-04  4770   0.335E-02    0.965E-02
RMM:  10    -0.253065605437E+04    0.38421E-04   -0.62624E-04  5004   0.333E-02
  41 F= -.25306561E+04 E0= -.25306383E+04  d E =-.222492E+00  mag=   242.0000
       N       E                     dE             d eps       ncg     rms          rms(c)
DAV:   1    -0.253050564240E+04    0.15045E+00   -0.51393E+01  6240   0.635E+00    0.235E+00
RMM:   2    -0.253073994701E+04   -0.23430E+00   -0.23242E+00  8199   0.236E+00    0.134E+00
RMM:   3    -0.253079259307E+04   -0.52646E-01   -0.44536E-01  8963   0.630E-01    0.677E-01
RMM:   4    -0.253078963332E+04    0.29598E-02   -0.50569E-02  9497   0.217E-01    0.560E-01
RMM:   5    -0.253078786041E+04    0.17729E-02   -0.18027E-02  9887   0.937E-02    0.437E-01
RMM:   6    -0.253078610869E+04    0.17517E-02   -0.12728E-02  8746   0.972E-02    0.256E-01
RMM:   7    -0.253078654565E+04   -0.43697E-03   -0.55615E-03  9224   0.623E-02    0.128E-01
RMM:   8    -0.253078641535E+04    0.13030E-03   -0.54497E-04  4816   0.297E-02    0.912E-02
RMM:   9    -0.253078637452E+04    0.40832E-04   -0.41527E-04  4516   0.298E-02
  42 F= -.25307864E+04 E0= -.25307689E+04  d E =-.130320E+00  mag=   242.0000
       N       E                     dE             d eps       ncg     rms          rms(c)
DAV:   1    -0.253069571872E+04    0.90697E-01   -0.27617E+01  6320   0.466E+00    0.172E+00
RMM:   2    -0.253082166192E+04   -0.12594E+00   -0.12444E+00  8204   0.173E+00    0.970E-01
RMM:   3    -0.253085002422E+04   -0.28362E-01   -0.23997E-01  8998   0.462E-01    0.494E-01
RMM:   4    -0.253084843680E+04    0.15874E-02   -0.27301E-02  9454   0.160E-01    0.405E-01
RMM:   5    -0.253084741903E+04    0.10178E-02   -0.10052E-02  9658   0.706E-02    0.311E-01
RMM:   6    -0.253084663344E+04    0.78559E-03   -0.71449E-03  8642   0.748E-02    0.181E-01
RMM:   7    -0.253084686385E+04   -0.23041E-03   -0.24993E-03  8080   0.440E-02    0.923E-02
RMM:   8    -0.253084680314E+04    0.60713E-04   -0.26952E-04  4070   0.282E-02
  43 F= -.25308468E+04 E0= -.25308295E+04  d E =-.190749E+00  mag=   242.0000
       N       E                     dE             d eps       ncg     rms          rms(c)
DAV:   1    -0.253027448656E+04    0.57238E+00   -0.11011E+02  6240   0.931E+00    0.343E+00
RMM:   2    -0.253077880581E+04   -0.50432E+00   -0.50235E+00  8203   0.347E+00    0.196E+00
RMM:   3    -0.253089209447E+04   -0.11329E+00   -0.95701E-01  8981   0.921E-01    0.985E-01
RMM:   4    -0.253088552191E+04    0.65726E-02   -0.10683E-01  9443   0.320E-01    0.812E-01
RMM:   5    -0.253088172430E+04    0.37976E-02   -0.38814E-02 10007   0.137E-01    0.642E-01
RMM:   6    -0.253087792763E+04    0.37967E-02   -0.26093E-02  8801   0.136E-01    0.372E-01
RMM:   7    -0.253087874688E+04   -0.81925E-03   -0.12015E-02  9362   0.914E-02    0.179E-01
RMM:   8    -0.253087855021E+04    0.19667E-03   -0.17804E-03  7534   0.418E-02    0.134E-01
RMM:   9    -0.253087847610E+04    0.74110E-04   -0.10151E-03  5902   0.342E-02    0.934E-02
RMM:  10    -0.253087849364E+04   -0.17537E-04   -0.60661E-04  5025   0.343E-02
  44 F= -.25308785E+04 E0= -.25308617E+04  d E =-.222439E+00  mag=   242.0000
       N       E                     dE             d eps       ncg     rms          rms(c)
DAV:   1    -0.253082000253E+04    0.58474E-01   -0.11280E+01  6560   0.299E+00    0.111E+00
RMM:   2    -0.253087157604E+04   -0.51574E-01   -0.51201E-01  8219   0.111E+00    0.660E-01
RMM:   3    -0.253088295631E+04   -0.11380E-01   -0.95236E-02  8874   0.294E-01    0.329E-01
RMM:   4    -0.253088224991E+04    0.70640E-03   -0.99015E-03  9093   0.100E-01    0.260E-01
RMM:   5    -0.253088170261E+04    0.54730E-03   -0.34870E-03  8352   0.462E-02    0.210E-01
RMM:   6    -0.253088132139E+04    0.38122E-03   -0.28727E-03  7984   0.532E-02    0.118E-01
RMM:   7    -0.253088134845E+04   -0.27055E-04   -0.71582E-04  5518   0.319E-02
  45 F= -.25308813E+04 E0= -.25308644E+04  d E =-.225294E+00  mag=   242.0000
       N       E                     dE             d eps       ncg     rms          rms(c)
DAV:   1    -0.253066445367E+04    0.21687E+00   -0.69799E+01  6560   0.745E+00    0.223E+00
RMM:   2    -0.253096028601E+04   -0.29583E+00   -0.29336E+00  8066   0.264E+00    0.127E+00
RMM:   3    -0.253101712026E+04   -0.56834E-01   -0.52115E-01  8950   0.699E-01    0.763E-01
RMM:   4    -0.253101437038E+04    0.27499E-02   -0.65020E-02  9274   0.240E-01    0.604E-01
RMM:   5    -0.253101136557E+04    0.30048E-02   -0.25558E-02  9527   0.116E-01    0.482E-01
RMM:   6    -0.253101028683E+04    0.10787E-02   -0.15871E-02  8814   0.107E-01    0.262E-01
RMM:   7    -0.253101049493E+04   -0.20811E-03   -0.37623E-03  8477   0.589E-02    0.155E-01
RMM:   8    -0.253101037102E+04    0.12391E-03   -0.10118E-03  5998   0.321E-02    0.105E-01
RMM:   9    -0.253101036296E+04    0.80615E-05   -0.47228E-04  4678   0.287E-02
  46 F= -.25310104E+04 E0= -.25309935E+04  d E =-.129015E+00  mag=   242.0000
       N       E                     dE             d eps       ncg     rms          rms(c)
DAV:   1    -0.253090806013E+04    0.10231E+00   -0.30180E+01  6640   0.490E+00    0.148E+00
RMM:   2    -0.253103623944E+04   -0.12818E+00   -0.12708E+00  8082   0.173E+00    0.819E-01
RMM:   3    -0.253106101395E+04   -0.24775E-01   -0.22778E-01  9052   0.459E-01    0.495E-01
RMM:   4    -0.253105989281E+04    0.11211E-02   -0.29700E-02  9266   0.159E-01    0.388E-01
RMM:   5    -0.253105872013E+04    0.11727E-02   -0.11710E-02  9554   0.812E-02    0.326E-01
RMM:   6    -0.253105842830E+04    0.29183E-03   -0.66558E-03  8911   0.676E-02    0.172E-01
RMM:   7    -0.253105847202E+04   -0.43719E-04   -0.12967E-03  6671   0.398E-02    0.101E-01
RMM:   8    -0.253105842810E+04    0.43917E-04   -0.37863E-04  4389   0.308E-02
  47 F= -.25310584E+04 E0= -.25310416E+04  d E =-.177080E+00  mag=   242.0000
       N       E                     dE             d eps       ncg     rms          rms(c)
DAV:   1    -0.253046137013E+04    0.59710E+00   -0.12049E+02  6640   0.979E+00    0.300E+00
RMM:   2    -0.253097416823E+04   -0.51280E+00   -0.50934E+00  8080   0.346E+00    0.171E+00
RMM:   3    -0.253107399766E+04   -0.99829E-01   -0.91689E-01  9012   0.925E-01    0.102E+00
RMM:   4    -0.253106912356E+04    0.48741E-02   -0.11731E-01  9336   0.320E-01    0.792E-01
RMM:   5    -0.253106414721E+04    0.49763E-02   -0.46532E-02  9576   0.160E-01    0.666E-01
RMM:   6    -0.253106288550E+04    0.12617E-02   -0.26687E-02  9045   0.133E-01    0.357E-01
RMM:   7    -0.253106314224E+04   -0.25674E-03   -0.63077E-03  9114   0.763E-02    0.197E-01
RMM:   8    -0.253106301400E+04    0.12825E-03   -0.23724E-03  7811   0.402E-02    0.149E-01
RMM:   9    -0.253106302336E+04   -0.93638E-05   -0.76235E-04  5438   0.306E-02
  48 F= -.25310630E+04 E0= -.25310461E+04  d E =-.181675E+00  mag=   242.0000
       N       E                     dE             d eps       ncg     rms          rms(c)
DAV:   1    -0.253092114847E+04    0.14187E+00   -0.31787E+01  6640   0.503E+00    0.152E+00
RMM:   2    -0.253105433386E+04   -0.13319E+00   -0.13282E+00  8078   0.177E+00    0.851E-01
RMM:   3    -0.253107917825E+04   -0.24844E-01   -0.22945E-01  8898   0.467E-01    0.498E-01
RMM:   4    -0.253107790767E+04    0.12706E-02   -0.28741E-02  8882   0.167E-01    0.391E-01
RMM:   5    -0.253107662728E+04    0.12804E-02   -0.11731E-02  9305   0.823E-02    0.345E-01
RMM:   6    -0.253107621855E+04    0.40873E-03   -0.67108E-03  8676   0.685E-02    0.183E-01
RMM:   7    -0.253107624756E+04   -0.29016E-04   -0.13121E-03  6585   0.427E-02    0.111E-01
RMM:   8    -0.253107621526E+04    0.32306E-04   -0.37664E-04  4462   0.294E-02
  49 F= -.25310762E+04 E0= -.25310593E+04  d E =-.194867E+00  mag=   242.0000
       N       E                     dE             d eps       ncg     rms          rms(c)
DAV:   1    -0.253098778316E+04    0.88464E-01   -0.39663E+01  6480   0.559E+00    0.163E+00
RMM:   2    -0.253114809036E+04   -0.16031E+00   -0.16552E+00  8237   0.200E+00    0.104E+00
RMM:   3    -0.253117874798E+04   -0.30658E-01   -0.28741E-01  8872   0.518E-01    0.563E-01
RMM:   4    -0.253117734719E+04    0.14008E-02   -0.34790E-02  9358   0.178E-01    0.457E-01
RMM:   5    -0.253117550795E+04    0.18392E-02   -0.15566E-02  9175   0.918E-02    0.328E-01
RMM:   6    -0.253117525734E+04    0.25061E-03   -0.76060E-03  8928   0.758E-02    0.174E-01
RMM:   7    -0.253117535617E+04   -0.98830E-04   -0.16954E-03  7458   0.383E-02    0.110E-01
RMM:   8    -0.253117526727E+04    0.88909E-04   -0.37059E-04  4429   0.281E-02
  50 F= -.25311753E+04 E0= -.25311586E+04  d E =-.990520E-01  mag=   242.0000
       N       E                     dE             d eps       ncg     rms          rms(c)
DAV:   1    -0.252960694909E+04    0.15684E+01   -0.35635E+02  6400   0.168E+01    0.509E+00
RMM:   2    -0.253110130103E+04   -0.14944E+01   -0.15369E+01  8194   0.611E+00    0.345E+00
RMM:   3    -0.253140575170E+04   -0.30445E+00   -0.28420E+00  8891   0.163E+00    0.188E+00
RMM:   4    -0.253139292053E+04    0.12831E-01   -0.34718E-01  9668   0.547E-01    0.151E+00
RMM:   5    -0.253137509755E+04    0.17823E-01   -0.14796E-01  9328   0.281E-01    0.110E+00
RMM:   6    -0.253137285421E+04    0.22433E-02   -0.77131E-02  9058   0.235E-01    0.598E-01
RMM:   7    -0.253137418635E+04   -0.13321E-02   -0.19481E-02  9786   0.119E-01    0.349E-01
RMM:   8    -0.253137345647E+04    0.72989E-03   -0.64978E-03  9800   0.592E-02    0.205E-01
RMM:   9    -0.253137332397E+04    0.13250E-03   -0.34358E-03  9080   0.460E-02    0.145E-01
RMM:  10    -0.253137328616E+04    0.37805E-04   -0.78317E-04  5648   0.319E-02
  51 F= -.25313733E+04 E0= -.25313571E+04  d E =-.297071E+00  mag=   242.0000
       N       E                     dE             d eps       ncg     rms          rms(c)
DAV:   1    -0.252379034935E+04    0.75830E+01   -0.14184E+03  6320   0.336E+01    0.110E+01
RMM:   2    -0.253010234734E+04   -0.63120E+01   -0.64948E+01  8074   0.127E+01    0.815E+00
RMM:   3    -0.253146912368E+04   -0.13668E+01   -0.12744E+01  8777   0.351E+00    0.436E+00
RMM:   4    -0.253139597406E+04    0.73150E-01   -0.15075E+00  9687   0.116E+00    0.353E+00
RMM:   5    -0.253131102845E+04    0.84946E-01   -0.66762E-01  9344   0.592E-01    0.255E+00
RMM:   6    -0.253129252201E+04    0.18506E-01   -0.36426E-01  9040   0.508E-01    0.143E+00
RMM:   7    -0.253129681757E+04   -0.42956E-02   -0.90643E-02  9850   0.264E-01    0.815E-01
RMM:   8    -0.253129427255E+04    0.25450E-02   -0.29412E-02 10074   0.125E-01    0.450E-01
RMM:   9    -0.253129408503E+04    0.18752E-03   -0.15076E-02 10185   0.920E-02    0.324E-01
RMM:  10    -0.253129405650E+04    0.28528E-04   -0.38731E-03  9201   0.511E-02    0.212E-01
RMM:  11    -0.253129402622E+04    0.30278E-04   -0.14072E-03  6966   0.381E-02    0.134E-01
RMM:  12    -0.253129400189E+04    0.24331E-04   -0.77228E-04  5794   0.330E-02
  52 F= -.25312940E+04 E0= -.25312772E+04  d E =-.217787E+00  mag=   242.0000
       N       E                     dE             d eps       ncg     rms          rms(c)
DAV:   1    -0.252778966603E+04    0.35044E+01   -0.74948E+02  6400   0.243E+01    0.755E+00
RMM:   2    -0.253090286482E+04   -0.31132E+01   -0.33063E+01  8242   0.875E+00    0.521E+00
RMM:   3    -0.253149273987E+04   -0.58988E+00   -0.56339E+00  8895   0.226E+00    0.239E+00
RMM:   4    -0.253145183852E+04    0.40901E-01   -0.69630E-01  9118   0.854E-01    0.189E+00
RMM:   5    -0.253142794199E+04    0.23897E-01   -0.30093E-01  9610   0.377E-01    0.137E+00
RMM:   6    -0.253141362506E+04    0.14317E-01   -0.13160E-01  9025   0.306E-01    0.720E-01
RMM:   7    -0.253141614593E+04   -0.25209E-02   -0.51442E-02  9608   0.180E-01    0.520E-01
RMM:   8    -0.253141606096E+04    0.84970E-04   -0.11225E-02  9728   0.930E-02    0.262E-01
RMM:   9    -0.253141640768E+04   -0.34672E-03   -0.56575E-03  9671   0.501E-02    0.168E-01
RMM:  10    -0.253141653528E+04   -0.12760E-03   -0.15516E-03  7443   0.364E-02    0.107E-01
RMM:  11    -0.253141663244E+04   -0.97153E-04   -0.85945E-04  5464   0.332E-02
  53 F= -.25314166E+04 E0= -.25314004E+04  d E =-.340417E+00  mag=   242.0000
       N       E                     dE             d eps       ncg     rms          rms(c)
DAV:   1    -0.253103802766E+04    0.37851E+00   -0.12139E+02  6400   0.971E+00    0.277E+00
RMM:   2    -0.253151581107E+04   -0.47778E+00   -0.48272E+00  8038   0.342E+00    0.158E+00
RMM:   3    -0.253161112752E+04   -0.95316E-01   -0.89844E-01  8681   0.916E-01    0.916E-01
RMM:   4    -0.253160914656E+04    0.19810E-02   -0.11651E-01  9246   0.320E-01    0.757E-01
RMM:   5    -0.253160567138E+04    0.34752E-02   -0.44253E-02  9678   0.139E-01    0.532E-01
RMM:   6    -0.253160295383E+04    0.27175E-02   -0.23926E-02  8654   0.141E-01    0.340E-01
RMM:   7    -0.253160378220E+04   -0.82836E-03   -0.95526E-03  9527   0.734E-02    0.192E-01
RMM:   8    -0.253160346279E+04    0.31941E-03   -0.16366E-03  6669   0.391E-02    0.122E-01
RMM:   9    -0.253160343230E+04    0.30486E-04   -0.14265E-03  6819   0.358E-02    0.732E-02
RMM:  10    -0.253160343985E+04   -0.75479E-05   -0.30593E-04  4221   0.311E-02
  54 F= -.25316034E+04 E0= -.25315869E+04  d E =-.186807E+00  mag=   242.0000
       N       E                     dE             d eps       ncg     rms          rms(c)
DAV:   1    -0.252975128139E+04    0.18522E+01   -0.43384E+02  6480   0.184E+01    0.535E+00
RMM:   2    -0.253147687413E+04   -0.17256E+01   -0.17400E+01  7950   0.650E+00    0.313E+00
RMM:   3    -0.253183493099E+04   -0.35806E+00   -0.33738E+00  8695   0.179E+00    0.184E+00
RMM:   4    -0.253182626654E+04    0.86645E-02   -0.44025E-01  9274   0.625E-01    0.151E+00
RMM:   5    -0.253181296175E+04    0.13305E-01   -0.17584E-01  9801   0.277E-01    0.105E+00
RMM:   6    -0.253180421401E+04    0.87477E-02   -0.92086E-02  8777   0.274E-01    0.678E-01
RMM:   7    -0.253180710342E+04   -0.28894E-02   -0.34142E-02  9845   0.136E-01    0.387E-01
RMM:   8    -0.253180613190E+04    0.97152E-03   -0.78991E-03  9663   0.700E-02    0.235E-01
RMM:   9    -0.253180611000E+04    0.21900E-04   -0.54367E-03  9555   0.494E-02    0.131E-01
RMM:  10    -0.253180609318E+04    0.16813E-04   -0.89324E-04  5695   0.329E-02
  55 F= -.25318061E+04 E0= -.25317890E+04  d E =-.389461E+00  mag=   242.0000
       N       E                     dE             d eps       ncg     rms          rms(c)
DAV:   1    -0.253108751161E+04    0.71860E+00   -0.21268E+02  6080   0.127E+01    0.383E+00
RMM:   2    -0.253189978030E+04   -0.81227E+00   -0.80567E+00  7848   0.448E+00    0.230E+00
RMM:   3    -0.253210890480E+04   -0.20912E+00   -0.19162E+00  8517   0.127E+00    0.132E+00
RMM:   4    -0.253210337421E+04    0.55306E-02   -0.22006E-01  9304   0.427E-01    0.110E+00
RMM:   5    -0.253209932340E+04    0.40508E-02   -0.87026E-02 10064   0.178E-01    0.774E-01
RMM:   6    -0.253209230495E+04    0.70185E-02   -0.49274E-02  8588   0.220E-01    0.715E-01
RMM:   7    -0.253209419677E+04   -0.18918E-02   -0.26234E-02  9597   0.112E-01    0.297E-01
RMM:   8    -0.253209352828E+04    0.66849E-03   -0.42973E-03  7722   0.724E-02    0.241E-01
RMM:   9    -0.253209353848E+04   -0.10197E-04   -0.41640E-03  8183   0.518E-02    0.153E-01
RMM:  10    -0.253209355670E+04   -0.18220E-04   -0.77493E-04  5608   0.311E-02
  56 F= -.25320936E+04 E0= -.25320763E+04  d E =-.287464E+00  mag=   242.0000
       N       E                     dE             d eps       ncg     rms          rms(c)
DAV:   1    -0.253168170174E+04    0.41184E+00   -0.11604E+02  6080   0.936E+00    0.283E+00
RMM:   2    -0.253212337231E+04   -0.44167E+00   -0.43798E+00  7843   0.331E+00    0.169E+00
RMM:   3    -0.253223695462E+04   -0.11358E+00   -0.10407E+00  8526   0.935E-01    0.959E-01
RMM:   4    -0.253223433058E+04    0.26240E-02   -0.12193E-01  9329   0.312E-01    0.802E-01
RMM:   5    -0.253223210733E+04    0.22232E-02   -0.46273E-02 10043   0.132E-01    0.559E-01
RMM:   6    -0.253222838415E+04    0.37232E-02   -0.27248E-02  8608   0.161E-01    0.498E-01
RMM:   7    -0.253222942426E+04   -0.10401E-02   -0.13534E-02  9534   0.812E-02    0.209E-01
RMM:   8    -0.253222905220E+04    0.37206E-03   -0.21151E-03  6885   0.516E-02    0.159E-01
RMM:   9    -0.253222904602E+04    0.61872E-05   -0.22357E-03  7588   0.407E-02    0.101E-01
RMM:  10    -0.253222905510E+04   -0.90834E-05   -0.35791E-04  4378   0.278E-02
  57 F= -.25322291E+04 E0= -.25322123E+04  d E =-.422962E+00  mag=   242.0000
       N       E                     dE             d eps       ncg     rms          rms(c)
DAV:   1    -0.253004317910E+04    0.21859E+01   -0.46295E+02  6080   0.187E+01    0.576E+00
RMM:   2    -0.253185915396E+04   -0.18160E+01   -0.18058E+01  7844   0.671E+00    0.339E+00
RMM:   3    -0.253232162540E+04   -0.46247E+00   -0.42442E+00  8521   0.191E+00    0.201E+00
RMM:   4    -0.253230920324E+04    0.12422E-01   -0.49006E-01  9270   0.642E-01    0.169E+00
RMM:   5    -0.253229716595E+04    0.12037E-01   -0.19195E-01  9977   0.271E-01    0.116E+00
RMM:   6    -0.253228142243E+04    0.15744E-01   -0.10913E-01  8597   0.323E-01    0.100E+00
RMM:   7    -0.253228576091E+04   -0.43385E-02   -0.57824E-02  9634   0.168E-01    0.441E-01
RMM:   8    -0.253228391236E+04    0.18485E-02   -0.10042E-02  9045   0.104E-01    0.337E-01
RMM:   9    -0.253228393354E+04   -0.21181E-04   -0.92469E-03  9044   0.714E-02    0.222E-01
RMM:  10    -0.253228397209E+04   -0.38548E-04   -0.15881E-03  6662   0.362E-02    0.107E-01
RMM:  11    -0.253228395303E+04    0.19058E-04   -0.45958E-04  4665   0.297E-02
  58 F= -.25322840E+04 E0= -.25322685E+04  d E =-.477860E+00  mag=   242.0000
       N       E                     dE             d eps       ncg     rms          rms(c)
DAV:   1    -0.253196242157E+04    0.32155E+00   -0.72485E+01  6240   0.739E+00    0.226E+00
RMM:   2    -0.253223847681E+04   -0.27606E+00   -0.27632E+00  7899   0.260E+00    0.138E+00
RMM:   3    -0.253230467637E+04   -0.66200E-01   -0.60928E-01  8571   0.713E-01    0.764E-01
RMM:   4    -0.253230248977E+04    0.21866E-02   -0.71780E-02  9279   0.235E-01    0.613E-01
RMM:   5    -0.253230050869E+04    0.19811E-02   -0.24460E-02  9756   0.105E-01    0.430E-01
RMM:   6    -0.253229817967E+04    0.23290E-02   -0.16458E-02  8526   0.120E-01    0.295E-01
RMM:   7    -0.253229872973E+04   -0.55006E-03   -0.64480E-03  9174   0.614E-02    0.145E-01
RMM:   8    -0.253229851774E+04    0.21199E-03   -0.92766E-04  5784   0.327E-02    0.945E-02
RMM:   9    -0.253229849764E+04    0.20106E-04   -0.91334E-04  5848   0.316E-02
  59 F= -.25322985E+04 E0= -.25322825E+04  d E =-.492404E+00  mag=   242.0000
       N       E                     dE             d eps       ncg     rms          rms(c)
DAV:   1    -0.253198977170E+04    0.30875E+00   -0.10225E+02  6080   0.881E+00    0.250E+00
RMM:   2    -0.253237684239E+04   -0.38707E+00   -0.39364E+00  7959   0.313E+00    0.164E+00
RMM:   3    -0.253246926095E+04   -0.92419E-01   -0.85264E-01  8575   0.858E-01    0.915E-01
RMM:   4    -0.253246683396E+04    0.24270E-02   -0.98658E-02  9342   0.286E-01    0.797E-01
RMM:   5    -0.253246474450E+04    0.20895E-02   -0.35975E-02  9998   0.117E-01    0.582E-01
RMM:   6    -0.253246071231E+04    0.40322E-02   -0.23302E-02  8506   0.153E-01    0.468E-01
RMM:   7    -0.253246160419E+04   -0.89189E-03   -0.12639E-02  9204   0.816E-02    0.190E-01
RMM:   8    -0.253246123113E+04    0.37306E-03   -0.16661E-03  6484   0.522E-02    0.143E-01
RMM:   9    -0.253246119025E+04    0.40884E-04   -0.20014E-03  7285   0.403E-02    0.102E-01
RMM:  10    -0.253246119089E+04   -0.64407E-06   -0.26446E-04  4071   0.269E-02
  60 F= -.25324612E+04 E0= -.25324461E+04  d E =-.162693E+00  mag=   242.0000
       N       E                     dE             d eps       ncg     rms          rms(c)
DAV:   1    -0.253071348336E+04    0.17477E+01   -0.41077E+02  6080   0.177E+01    0.509E+00
RMM:   2    -0.253232178413E+04   -0.16083E+01   -0.16323E+01  7943   0.639E+00    0.330E+00
RMM:   3    -0.253271004241E+04   -0.38826E+00   -0.35790E+00  8566   0.177E+00    0.194E+00
RMM:   4    -0.253269985208E+04    0.10190E-01   -0.41869E-01  9474   0.590E-01    0.170E+00
RMM:   5    -0.253268906674E+04    0.10785E-01   -0.15901E-01 10057   0.245E-01    0.123E+00
RMM:   6    -0.253267318535E+04    0.15881E-01   -0.10176E-01  8529   0.318E-01    0.100E+00
RMM:   7    -0.253267745131E+04   -0.42660E-02   -0.56449E-02  9489   0.169E-01    0.419E-01
RMM:   8    -0.253267555037E+04    0.19009E-02   -0.89734E-03  8943   0.104E-01    0.325E-01
RMM:   9    -0.253267545662E+04    0.93750E-04   -0.86544E-03  8860   0.700E-02    0.211E-01
RMM:  10    -0.253267548285E+04   -0.26224E-04   -0.14471E-03  6576   0.377E-02    0.105E-01
RMM:  11    -0.253267545725E+04    0.25602E-04   -0.42944E-04  4609   0.294E-02
  61 F= -.25326755E+04 E0= -.25326620E+04  d E =-.376960E+00  mag=   242.0000
       N       E                     dE             d eps       ncg     rms          rms(c)
DAV:   1    -0.252410614470E+04    0.85693E+01   -0.16293E+03  6080   0.353E+01    0.110E+01
RMM:   2    -0.253101443775E+04   -0.69083E+01   -0.70913E+01  7856   0.133E+01    0.733E+00
RMM:   3    -0.253279371541E+04   -0.17793E+01   -0.16490E+01  8574   0.383E+00    0.459E+00
RMM:   4    -0.253271752011E+04    0.76195E-01   -0.17825E+00  9449   0.129E+00    0.410E+00
RMM:   5    -0.253263668717E+04    0.80833E-01   -0.77105E-01  9835   0.551E-01    0.293E+00
RMM:   6    -0.253256485394E+04    0.71833E-01   -0.48884E-01  8576   0.653E-01    0.196E+00
RMM:   7    -0.253258384159E+04   -0.18988E-01   -0.27443E-01  9600   0.372E-01    0.102E+00
RMM:   8    -0.253257092455E+04    0.12917E-01   -0.48315E-02  9010   0.231E-01    0.729E-01
RMM:   9    -0.253257124236E+04   -0.31782E-03   -0.54237E-02  9569   0.171E-01    0.523E-01
RMM:  10    -0.253257135091E+04   -0.10855E-03   -0.71277E-03  9261   0.756E-02    0.256E-01
RMM:  11    -0.253257104389E+04    0.30702E-03   -0.25375E-03  7785   0.409E-02    0.146E-01
RMM:  12    -0.253257112079E+04   -0.76902E-04   -0.38028E-03  7789   0.513E-02    0.116E-01
RMM:  13    -0.253257096917E+04    0.15162E-03   -0.51001E-04  4716   0.343E-02    0.811E-02
RMM:  14    -0.253257092642E+04    0.42752E-04   -0.40558E-04  4339   0.338E-02
  62 F= -.25325709E+04 E0= -.25325591E+04  d E =-.272429E+00  mag=   242.0000
       N       E                     dE             d eps       ncg     rms          rms(c)
DAV:   1    -0.252875527197E+04    0.38157E+01   -0.83915E+02  6080   0.252E+01    0.789E+00
RMM:   2    -0.253208130796E+04   -0.33260E+01   -0.34715E+01  8006   0.908E+00    0.588E+00
RMM:   3    -0.253282517069E+04   -0.74386E+00   -0.69601E+00  8685   0.241E+00    0.273E+00
RMM:   4    -0.253277192151E+04    0.53249E-01   -0.80748E-01  9408   0.827E-01    0.211E+00
RMM:   5    -0.253274233559E+04    0.29586E-01   -0.30442E-01  9845   0.385E-01    0.153E+00
RMM:   6    -0.253271968617E+04    0.22649E-01   -0.19906E-01  8639   0.396E-01    0.894E-01
RMM:   7    -0.253272486775E+04   -0.51816E-02   -0.70291E-02  9763   0.204E-01    0.495E-01
RMM:   8    -0.253272287815E+04    0.19896E-02   -0.16037E-02  9616   0.106E-01    0.332E-01
RMM:   9    -0.253272312669E+04   -0.24854E-03   -0.92995E-03 10029   0.651E-02    0.192E-01
RMM:  10    -0.253272321452E+04   -0.87833E-04   -0.17873E-03  7247   0.384E-02    0.114E-01
RMM:  11    -0.253272326315E+04   -0.48623E-04   -0.78539E-04  5485   0.336E-02
  63 F= -.25327233E+04 E0= -.25327105E+04  d E =-.424766E+00  mag=   242.0000
       N       E                     dE             d eps       ncg     rms          rms(c)
DAV:   1    -0.253236338693E+04    0.35983E+00   -0.76694E+01  6400   0.764E+00    0.216E+00
RMM:   2    -0.253266070920E+04   -0.29732E+00   -0.30262E+00  7993   0.274E+00    0.139E+00
RMM:   3    -0.253272690240E+04   -0.66193E-01   -0.61046E-01  8588   0.733E-01    0.799E-01
RMM:   4    -0.253272517101E+04    0.17314E-02   -0.72775E-02  9367   0.241E-01    0.677E-01
RMM:   5    -0.253272232327E+04    0.28477E-02   -0.25155E-02  9611   0.108E-01    0.473E-01
RMM:   6    -0.253271998115E+04    0.23421E-02   -0.15958E-02  8473   0.126E-01    0.353E-01
RMM:   7    -0.253272065319E+04   -0.67204E-03   -0.79090E-03  9126   0.663E-02    0.159E-01
RMM:   8    -0.253272030471E+04    0.34848E-03   -0.10802E-03  5930   0.406E-02    0.114E-01
RMM:   9    -0.253272026460E+04    0.40106E-04   -0.13254E-03  6540   0.358E-02    0.739E-02
RMM:  10    -0.253272027133E+04   -0.67278E-05   -0.20927E-04  3930   0.272E-02
  64 F= -.25327203E+04 E0= -.25327078E+04  d E =-.421774E+00  mag=   242.0000
       N       E                     dE             d eps       ncg     rms          rms(c)
DAV:   1    -0.253261727506E+04    0.10299E+00   -0.23806E+01  6400   0.425E+00    0.122E+00
RMM:   2    -0.253270845907E+04   -0.91184E-01   -0.93769E-01  8021   0.151E+00    0.809E-01
RMM:   3    -0.253272843305E+04   -0.19974E-01   -0.18492E-01  8671   0.398E-01    0.432E-01
RMM:   4    -0.253272773602E+04    0.69703E-03   -0.21947E-02  9168   0.130E-01    0.357E-01
RMM:   5    -0.253272695716E+04    0.77886E-03   -0.71531E-03  8867   0.602E-02    0.253E-01
RMM:   6    -0.253272622645E+04    0.73071E-03   -0.52867E-03  8312   0.727E-02    0.162E-01
RMM:   7    -0.253272640140E+04   -0.17496E-03   -0.19744E-03  7302   0.377E-02    0.788E-02
RMM:   8    -0.253272634073E+04    0.60673E-04   -0.24606E-04  4089   0.330E-02
  65 F= -.25327263E+04 E0= -.25327137E+04  d E =-.427843E+00  mag=   242.0000
       N       E                     dE             d eps       ncg     rms          rms(c)
DAV:   1    -0.253269422005E+04    0.32181E-01   -0.44768E+01  6080   0.587E+00    0.195E+00
RMM:   2    -0.253288058915E+04   -0.18637E+00   -0.19561E+00  8185   0.213E+00    0.124E+00
RMM:   3    -0.253291857188E+04   -0.37983E-01   -0.35457E-01  8737   0.553E-01    0.682E-01
RMM:   4    -0.253291686093E+04    0.17110E-02   -0.44098E-02  9673   0.192E-01    0.559E-01
RMM:   5    -0.253291492682E+04    0.19341E-02   -0.16546E-02  9602   0.908E-02    0.415E-01
RMM:   6    -0.253291409126E+04    0.83556E-03   -0.10919E-02  8612   0.940E-02    0.222E-01
RMM:   7    -0.253291428868E+04   -0.19743E-03   -0.27339E-03  8027   0.487E-02    0.120E-01
RMM:   8    -0.253291413475E+04    0.15393E-03   -0.62923E-04  5219   0.308E-02    0.792E-02
RMM:   9    -0.253291410931E+04    0.25442E-04   -0.35195E-04  4316   0.290E-02
  66 F= -.25329141E+04 E0= -.25329022E+04  d E =-.187769E+00  mag=   242.0000
       N       E                     dE             d eps       ncg     rms          rms(c)
DAV:   1    -0.253269609688E+04    0.21804E+00   -0.75847E+01  6160   0.764E+00    0.255E+00
RMM:   2    -0.253301368415E+04   -0.31759E+00   -0.33192E+00  8200   0.277E+00    0.162E+00
RMM:   3    -0.253307853717E+04   -0.64853E-01   -0.60718E-01  8833   0.721E-01    0.909E-01
RMM:   4    -0.253307561543E+04    0.29217E-02   -0.77034E-02  9802   0.247E-01    0.733E-01
RMM:   5    -0.253307217654E+04    0.34389E-02   -0.29843E-02  9578   0.122E-01    0.535E-01
RMM:   6    -0.253307125229E+04    0.92425E-03   -0.18627E-02  8763   0.121E-01    0.291E-01
RMM:   7    -0.253307160630E+04   -0.35401E-03   -0.48976E-03  9234   0.609E-02    0.163E-01
RMM:   8    -0.253307136542E+04    0.24088E-03   -0.14011E-03  6808   0.342E-02    0.947E-02
RMM:   9    -0.253307132542E+04    0.39998E-04   -0.74788E-04  5523   0.319E-02
  67 F= -.25330713E+04 E0= -.25330602E+04  d E =-.344985E+00  mag=   242.0000
       N       E                     dE             d eps       ncg     rms          rms(c)
DAV:   1    -0.253154534457E+04    0.15260E+01   -0.30295E+02  6080   0.153E+01    0.528E+00
RMM:   2    -0.253283017222E+04   -0.12848E+01   -0.13376E+01  8127   0.562E+00    0.346E+00
RMM:   3    -0.253310464574E+04   -0.27447E+00   -0.25640E+00  8725   0.149E+00    0.189E+00
RMM:   4    -0.253309301753E+04    0.11628E-01   -0.31948E-01  9843   0.509E-01    0.152E+00
RMM:   5    -0.253307823288E+04    0.14785E-01   -0.12587E-01  9605   0.251E-01    0.112E+00
RMM:   6    -0.253307450337E+04    0.37295E-02   -0.74442E-02  8830   0.238E-01    0.613E-01
RMM:   7    -0.253307599158E+04   -0.14882E-02   -0.20285E-02  9876   0.123E-01    0.337E-01
RMM:   8    -0.253307524551E+04    0.74607E-03   -0.70457E-03  9883   0.605E-02    0.190E-01
RMM:   9    -0.253307515702E+04    0.88491E-04   -0.37484E-03  9422   0.457E-02    0.122E-01
RMM:  10    -0.253307513845E+04    0.18574E-04   -0.68515E-04  5403   0.288E-02
  68 F= -.25330751E+04 E0= -.25330653E+04  d E =-.348798E+00  mag=   242.0000
       N       E                     dE             d eps       ncg     rms          rms(c)
DAV:   1    -0.253267628416E+04    0.39887E+00   -0.92896E+01  6160   0.844E+00    0.284E+00
RMM:   2    -0.253305985809E+04   -0.38357E+00   -0.40962E+00  8196   0.302E+00    0.168E+00
RMM:   3    -0.253313515277E+04   -0.75295E-01   -0.71345E-01  8752   0.780E-01    0.950E-01
RMM:   4    -0.253313077481E+04    0.43780E-02   -0.87890E-02  9524   0.277E-01    0.785E-01
RMM:   5    -0.253312690853E+04    0.38663E-02   -0.33805E-02  9609   0.132E-01    0.570E-01
RMM:   6    -0.253312527181E+04    0.16367E-02   -0.20921E-02  8674   0.128E-01    0.274E-01
RMM:   7    -0.253312567525E+04   -0.40345E-03   -0.56991E-03  9292   0.670E-02    0.180E-01
RMM:   8    -0.253312549385E+04    0.18140E-03   -0.17629E-03  7321   0.385E-02    0.102E-01
RMM:   9    -0.253312550358E+04   -0.97281E-05   -0.56994E-04  5049   0.291E-02
  69 F= -.25331255E+04 E0= -.25331150E+04  d E =-.399163E+00  mag=   242.0000
       N       E                     dE             d eps       ncg     rms          rms(c)
DAV:   1    -0.253284352717E+04    0.28197E+00   -0.93530E+01  6240   0.851E+00    0.322E+00
RMM:   2    -0.253327452347E+04   -0.43100E+00   -0.43037E+00  8241   0.317E+00    0.195E+00
RMM:   3    -0.253335946377E+04   -0.84940E-01   -0.74961E-01  8761   0.818E-01    0.101E+00
RMM:   4    -0.253335473446E+04    0.47293E-02   -0.87605E-02  9630   0.285E-01    0.769E-01
RMM:   5    -0.253334979460E+04    0.49399E-02   -0.37236E-02  9390   0.142E-01    0.563E-01
RMM:   6    -0.253334869023E+04    0.11044E-02   -0.19542E-02  8876   0.124E-01    0.302E-01
RMM:   7    -0.253334909437E+04   -0.40414E-03   -0.52932E-03  9214   0.624E-02    0.167E-01
RMM:   8    -0.253334894619E+04    0.14818E-03   -0.12562E-03  6606   0.342E-02    0.102E-01
RMM:   9    -0.253334888837E+04    0.57820E-04   -0.58283E-04  5006   0.321E-02
  70 F= -.25333489E+04 E0= -.25333391E+04  d E =-.223385E+00  mag=   242.0000
       N       E                     dE             d eps       ncg     rms          rms(c)
DAV:   1    -0.253319759753E+04    0.15135E+00   -0.38790E+01  6400   0.548E+00    0.205E+00
RMM:   2    -0.253337765621E+04   -0.18006E+00   -0.17962E+00  8252   0.204E+00    0.123E+00
RMM:   3    -0.253341331873E+04   -0.35663E-01   -0.31510E-01  8885   0.525E-01    0.649E-01
RMM:   4    -0.253341139374E+04    0.19250E-02   -0.38182E-02  9753   0.180E-01    0.491E-01
RMM:   5    -0.253340936730E+04    0.20264E-02   -0.15720E-02  9461   0.931E-02    0.369E-01
RMM:   6    -0.253340901552E+04    0.35178E-03   -0.87198E-03  8933   0.803E-02    0.191E-01
RMM:   7    -0.253340914248E+04   -0.12695E-03   -0.19970E-03  7764   0.428E-02    0.107E-01
RMM:   8    -0.253340907948E+04    0.63000E-04   -0.46413E-04  4765   0.291E-02
  71 F= -.25334091E+04 E0= -.25333996E+04  d E =-.283576E+00  mag=   242.0000
       N       E                     dE             d eps       ncg     rms          rms(c)
DAV:   1    -0.253338102575E+04    0.28117E-01   -0.61092E+00  6720   0.217E+00    0.814E-01
RMM:   2    -0.253340965617E+04   -0.28630E-01   -0.28674E-01  8262   0.814E-01    0.473E-01
RMM:   3    -0.253341549416E+04   -0.58380E-02   -0.51429E-02  8984   0.211E-01    0.256E-01
RMM:   4    -0.253341520399E+04    0.29018E-03   -0.63471E-03  9224   0.720E-02    0.195E-01
RMM:   5    -0.253341490210E+04    0.30189E-03   -0.24067E-03  8033   0.405E-02    0.146E-01
RMM:   6    -0.253341483000E+04    0.72099E-04   -0.13441E-03  6747   0.411E-02    0.809E-02
RMM:   7    -0.253341485507E+04   -0.25069E-04   -0.37893E-04  4331   0.302E-02
  72 F= -.25334149E+04 E0= -.25334054E+04  d E =-.289351E+00  mag=   242.0000
       N       E                     dE             d eps       ncg     rms          rms(c)
DAV:   1    -0.253301484881E+04    0.39998E+00   -0.10589E+02  6560   0.913E+00    0.314E+00
RMM:   2    -0.253348975765E+04   -0.47491E+00   -0.46551E+00  8015   0.343E+00    0.182E+00
RMM:   3    -0.253359530665E+04   -0.10555E+00   -0.93921E-01  8730   0.953E-01    0.102E+00
RMM:   4    -0.253359432339E+04    0.98326E-03   -0.12508E-01  9374   0.340E-01    0.801E-01
RMM:   5    -0.253359062964E+04    0.36938E-02   -0.38933E-02  9684   0.143E-01    0.608E-01
RMM:   6    -0.253358808644E+04    0.25432E-02   -0.24911E-02  8756   0.139E-01    0.349E-01
RMM:   7    -0.253358876014E+04   -0.67370E-03   -0.84278E-03  9585   0.797E-02    0.180E-01
RMM:   8    -0.253358861976E+04    0.14038E-03   -0.15014E-03  7102   0.352E-02    0.114E-01
RMM:   9    -0.253358856113E+04    0.58637E-04   -0.79069E-04  5689   0.333E-02
  73 F= -.25335886E+04 E0= -.25335788E+04  d E =-.173706E+00  mag=   242.0000
       N       E                     dE             d eps       ncg     rms          rms(c)
DAV:   1    -0.253350949320E+04    0.79127E-01   -0.19317E+01  6640   0.390E+00    0.134E+00
RMM:   2    -0.253359714499E+04   -0.87652E-01   -0.85714E-01  8011   0.147E+00    0.748E-01
RMM:   3    -0.253361674564E+04   -0.19601E-01   -0.17480E-01  8773   0.410E-01    0.429E-01
RMM:   4    -0.253361663588E+04    0.10976E-03   -0.23626E-02  9310   0.145E-01    0.340E-01
RMM:   5    -0.253361598761E+04    0.64828E-03   -0.73156E-03  9035   0.635E-02    0.264E-01
RMM:   6    -0.253361555000E+04    0.43761E-03   -0.49166E-03  8547   0.642E-02    0.153E-01
RMM:   7    -0.253361564223E+04   -0.92236E-04   -0.12732E-03  6531   0.385E-02    0.770E-02
RMM:   8    -0.253361562787E+04    0.14367E-04   -0.23407E-04  3998   0.310E-02
  74 F= -.25336156E+04 E0= -.25336057E+04  d E =-.200773E+00  mag=   242.0000
[...]
 152 F= -.25373649E+04 E0= -.25373526E+04  d E =-.104398E+00  mag=   242.0000
       N       E                     dE             d eps       ncg     rms          rms(c)
DAV:   1    -0.253624065506E+04    0.11243E+01   -0.18304E+02  6240   0.121E+01    0.397E+00
RMM:   2    -0.253703969846E+04   -0.79904E+00   -0.77932E+00  7408   0.519E+00    0.220E+00
RMM:   3    -0.253736844694E+04   -0.32875E+00   -0.29468E+00  8511   0.172E+00    0.139E+00
RMM:   4    -0.253738035480E+04   -0.11908E-01   -0.33939E-01  9407   0.499E-01    0.123E+00
RMM:   5    -0.253737603132E+04    0.43235E-02   -0.83026E-02 10019   0.174E-01    0.100E+00
RMM:   6    -0.253736462898E+04    0.11402E-01   -0.49055E-02  8725   0.200E-01    0.577E-01
RMM:   7    -0.253736672693E+04   -0.20980E-02   -0.44239E-02  8719   0.188E-01    0.308E-01
RMM:   8    -0.253736662190E+04    0.10503E-03   -0.65135E-03  9742   0.721E-02    0.249E-01
RMM:   9    -0.253736572840E+04    0.89350E-03   -0.29174E-03  7994   0.481E-02    0.146E-01
RMM:  10    -0.253736557097E+04    0.15743E-03   -0.26722E-03  8315   0.453E-02    0.835E-02
RMM:  11    -0.253736559393E+04   -0.22962E-04   -0.41675E-04  4502   0.275E-02
 153 F= -.25373656E+04 E0= -.25373531E+04  d E =-.105046E+00  mag=   242.0000
       N       E                     dE             d eps       ncg     rms          rms(c)
DAV:   1    -0.253686554782E+04    0.50002E+00   -0.85184E+01  6320   0.825E+00    0.265E+00
RMM:   2    -0.253723679164E+04   -0.37124E+00   -0.36413E+00  7446   0.349E+00    0.138E+00
RMM:   3    -0.253738018757E+04   -0.14340E+00   -0.12840E+00  8475   0.113E+00    0.917E-01
RMM:   4    -0.253738479978E+04   -0.46122E-02   -0.14688E-01  9164   0.336E-01    0.788E-01
RMM:   5    -0.253738196366E+04    0.28361E-02   -0.35279E-02  9767   0.124E-01    0.632E-01
RMM:   6    -0.253737699295E+04    0.49707E-02   -0.23375E-02  8620   0.143E-01    0.354E-01
RMM:   7    -0.253737794388E+04   -0.95093E-03   -0.15824E-02  8783   0.111E-01    0.202E-01
RMM:   8    -0.253737785713E+04    0.86755E-04   -0.21242E-03  7903   0.459E-02    0.152E-01
RMM:   9    -0.253737754272E+04    0.31440E-03   -0.10705E-03  5700   0.379E-02    0.960E-02
RMM:  10    -0.253737749147E+04    0.51250E-04   -0.94249E-04  5932   0.319E-02
 154 F= -.25373775E+04 E0= -.25373651E+04  d E =-.116944E+00  mag=   242.0000
       N       E                     dE             d eps       ncg     rms          rms(c)
DAV:   1    -0.253725256374E+04    0.12498E+00   -0.21258E+01  6320   0.412E+00    0.133E+00
RMM:   2    -0.253734584747E+04   -0.93284E-01   -0.91378E-01  7504   0.172E+00    0.707E-01
RMM:   3    -0.253737929575E+04   -0.33448E-01   -0.29765E-01  8443   0.543E-01    0.459E-01
RMM:   4    -0.253738022409E+04   -0.92834E-03   -0.33531E-02  9044   0.163E-01    0.401E-01
RMM:   5    -0.253737966362E+04    0.56047E-03   -0.84265E-03  8847   0.606E-02    0.322E-01
RMM:   6    -0.253737839796E+04    0.12657E-02   -0.57794E-03  8427   0.745E-02    0.181E-01
RMM:   7    -0.253737861655E+04   -0.21859E-03   -0.39484E-03  8322   0.586E-02    0.100E-01
RMM:   8    -0.253737856972E+04    0.46835E-04   -0.26398E-04  3982   0.268E-02
 155 F= -.25373786E+04 E0= -.25373661E+04  d E =-.118022E+00  mag=   242.0000
       N       E                     dE             d eps       ncg     rms          rms(c)
DAV:   1    -0.253715981972E+04    0.21880E+00   -0.44881E+01  6240   0.599E+00    0.193E+00
RMM:   2    -0.253735391797E+04   -0.19410E+00   -0.19434E+00  7448   0.255E+00    0.102E+00
RMM:   3    -0.253742770068E+04   -0.73783E-01   -0.67405E-01  8497   0.826E-01    0.712E-01
RMM:   4    -0.253743042103E+04   -0.27203E-02   -0.80077E-02  9464   0.239E-01    0.612E-01
RMM:   5    -0.253742919273E+04    0.12283E-02   -0.19314E-02  9744   0.858E-02    0.482E-01
RMM:   6    -0.253742654356E+04    0.26492E-02   -0.12518E-02  8617   0.107E-01    0.278E-01
RMM:   7    -0.253742714909E+04   -0.60553E-03   -0.92425E-03  8698   0.855E-02    0.153E-01
RMM:   8    -0.253742699382E+04    0.15527E-03   -0.81407E-04  5698   0.345E-02    0.109E-01
RMM:   9    -0.253742682285E+04    0.17097E-03   -0.53502E-04  4608   0.335E-02    0.746E-02
RMM:  10    -0.253742680142E+04    0.21432E-04   -0.65132E-04  5126   0.277E-02
 156 F= -.25374268E+04 E0= -.25374144E+04  d E =-.482317E-01  mag=   242.0000
       N       E                     dE             d eps       ncg     rms          rms(c)
DAV:   1    -0.253742141456E+04    0.54083E-02   -0.15144E+00  6560   0.110E+00    0.345E-01
RMM:   2    -0.253742811290E+04   -0.66983E-02   -0.65842E-02  7427   0.469E-01    0.182E-01
RMM:   3    -0.253743066289E+04   -0.25500E-02   -0.23344E-02  8407   0.154E-01    0.133E-01
RMM:   4    -0.253743073492E+04   -0.72036E-04   -0.26826E-03  7842   0.451E-02    0.108E-01
RMM:   5    -0.253743065005E+04    0.84874E-04   -0.36387E-04  4443   0.252E-02
 157 F= -.25374307E+04 E0= -.25374182E+04  d E =-.520803E-01  mag=   242.0000
       N       E                     dE             d eps       ncg     rms          rms(c)
DAV:   1    -0.253739853889E+04    0.32196E-01   -0.59285E+00  6560   0.218E+00    0.686E-01
RMM:   2    -0.253742384999E+04   -0.25311E-01   -0.25277E-01  7428   0.919E-01    0.378E-01
RMM:   3    -0.253743353970E+04   -0.96897E-02   -0.89290E-02  8475   0.301E-01    0.268E-01
RMM:   4    -0.253743396167E+04   -0.42197E-03   -0.11424E-02  9379   0.862E-02    0.216E-01
RMM:   5    -0.253743366435E+04    0.29732E-03   -0.25325E-03  7760   0.369E-02    0.163E-01
RMM:   6    -0.253743342530E+04    0.23905E-03   -0.21851E-03  7516   0.493E-02    0.106E-01
RMM:   7    -0.253743349913E+04   -0.73832E-04   -0.68506E-04  5535   0.355E-02
 158 F= -.25374335E+04 E0= -.25374210E+04  d E =-.549294E-01  mag=   242.0000
       N       E                     dE             d eps       ncg     rms          rms(c)
DAV:   1    -0.253739789833E+04    0.35527E-01   -0.12405E+01  6400   0.317E+00    0.120E+00
RMM:   2    -0.253745456051E+04   -0.56662E-01   -0.55855E-01  7535   0.133E+00    0.653E-01
RMM:   3    -0.253747508226E+04   -0.20522E-01   -0.18246E-01  8534   0.430E-01    0.408E-01
RMM:   4    -0.253747539132E+04   -0.30906E-03   -0.20777E-02  9082   0.136E-01    0.369E-01
RMM:   5    -0.253747508175E+04    0.30957E-03   -0.53790E-03  8611   0.521E-02    0.265E-01
RMM:   6    -0.253747437049E+04    0.71126E-03   -0.39683E-03  8319   0.638E-02    0.175E-01
RMM:   7    -0.253747452183E+04   -0.15134E-03   -0.22673E-03  7780   0.469E-02    0.925E-02
RMM:   8    -0.253747449470E+04    0.27138E-04   -0.18860E-04  3850   0.271E-02
 159 F= -.25374745E+04 E0= -.25374620E+04  d E =-.409956E-01  mag=   242.0000
       N       E                     dE             d eps       ncg     rms          rms(c)
DAV:   1    -0.253740654813E+04    0.67974E-01   -0.13493E+01  6400   0.331E+00    0.125E+00
RMM:   2    -0.253746826289E+04   -0.61715E-01   -0.60766E-01  7521   0.139E+00    0.689E-01
RMM:   3    -0.253749100191E+04   -0.22739E-01   -0.20173E-01  8552   0.454E-01    0.429E-01
RMM:   4    -0.253749135182E+04   -0.34991E-03   -0.22916E-02  9041   0.143E-01    0.390E-01
RMM:   5    -0.253749103725E+04    0.31457E-03   -0.60161E-03  8761   0.552E-02    0.283E-01
RMM:   6    -0.253749025574E+04    0.78151E-03   -0.44486E-03  8409   0.670E-02    0.191E-01
RMM:   7    -0.253749043086E+04   -0.17511E-03   -0.25004E-03  7920   0.488E-02    0.994E-02
RMM:   8    -0.253749039863E+04    0.32223E-04   -0.20145E-04  3867   0.272E-02
 160 F= -.25374904E+04 E0= -.25374778E+04  d E =-.568995E-01  mag=   242.0000
       N       E                     dE             d eps       ncg     rms          rms(c)
DAV:   1    -0.253743203668E+04    0.58394E-01   -0.14922E+01  6400   0.348E+00    0.143E+00
RMM:   2    -0.253750212352E+04   -0.70087E-01   -0.68071E-01  7628   0.146E+00    0.856E-01
RMM:   3    -0.253752757952E+04   -0.25456E-01   -0.21939E-01  8652   0.468E-01    0.468E-01
RMM:   4    -0.253752777665E+04   -0.19712E-03   -0.24340E-02  9023   0.154E-01    0.468E-01
RMM:   5    -0.253752759609E+04    0.18055E-03   -0.64043E-03  8881   0.586E-02    0.323E-01
RMM:   6    -0.253752669638E+04    0.89972E-03   -0.46289E-03  8443   0.707E-02    0.224E-01
RMM:   7    -0.253752689515E+04   -0.19877E-03   -0.30200E-03  8190   0.532E-02    0.113E-01
RMM:   8    -0.253752685736E+04    0.37789E-04   -0.21164E-04  3888   0.267E-02
 161 F= -.25375269E+04 E0= -.25375143E+04  d E =-.364587E-01  mag=   242.0000
       N       E                     dE             d eps       ncg     rms          rms(c)
DAV:   1    -0.253740579310E+04    0.12110E+00   -0.20035E+01  6400   0.404E+00    0.164E+00
RMM:   2    -0.253749991084E+04   -0.94118E-01   -0.91245E-01  7605   0.170E+00    0.964E-01
RMM:   3    -0.253753458230E+04   -0.34671E-01   -0.29893E-01  8642   0.548E-01    0.539E-01
RMM:   4    -0.253753494302E+04   -0.36072E-03   -0.33194E-02  9043   0.178E-01    0.529E-01
RMM:   5    -0.253753469100E+04    0.25201E-03   -0.88768E-03  9137   0.666E-02    0.371E-01
RMM:   6    -0.253753350287E+04    0.11881E-02   -0.61869E-03  8575   0.794E-02    0.259E-01
RMM:   7    -0.253753377961E+04   -0.27674E-03   -0.40506E-03  8504   0.596E-02    0.127E-01
RMM:   8    -0.253753370962E+04    0.69989E-04   -0.25300E-04  3973   0.270E-02
 162 F= -.25375337E+04 E0= -.25375213E+04  d E =-.433110E-01  mag=   242.0000
       N       E                     dE             d eps       ncg     rms          rms(c)
DAV:   1    -0.253752393919E+04    0.98404E-02   -0.19469E+00  6720   0.126E+00    0.503E-01
RMM:   2    -0.253753284228E+04   -0.89031E-02   -0.84453E-02  7553   0.521E-01    0.312E-01
RMM:   3    -0.253753588728E+04   -0.30450E-02   -0.26456E-02  8263   0.168E-01    0.162E-01
RMM:   4    -0.253753586858E+04    0.18705E-04   -0.26991E-03  7725   0.555E-02    0.154E-01
RMM:   5    -0.253753578406E+04    0.84511E-04   -0.37978E-04  4423   0.254E-02
 163 F= -.25375358E+04 E0= -.25375233E+04  d E =-.453854E-01  mag=   242.0000
       N       E                     dE             d eps       ncg     rms          rms(c)
DAV:   1    -0.253745985100E+04    0.76018E-01   -0.16461E+01  6400   0.363E+00    0.151E+00
RMM:   2    -0.253754081621E+04   -0.80965E-01   -0.72996E-01  7724   0.147E+00    0.951E-01
RMM:   3    -0.253756606465E+04   -0.25248E-01   -0.20363E-01  8558   0.446E-01    0.463E-01
RMM:   4    -0.253756602136E+04    0.43283E-04   -0.21320E-02  9000   0.149E-01    0.497E-01
RMM:   5    -0.253756597849E+04    0.42872E-04   -0.64634E-03  8748   0.566E-02    0.328E-01
RMM:   6    -0.253756492172E+04    0.10568E-02   -0.49267E-03  8339   0.747E-02    0.290E-01
RMM:   7    -0.253756502041E+04   -0.98689E-04   -0.29414E-03  8160   0.550E-02    0.121E-01
RMM:   8    -0.253756500668E+04    0.13726E-04   -0.21015E-04  3874   0.272E-02
 164 F= -.25375650E+04 E0= -.25375529E+04  d E =-.292226E-01  mag=   242.0000
       N       E                     dE             d eps       ncg     rms          rms(c)
DAV:   1    -0.253748756581E+04    0.77455E-01   -0.13120E+01  6400   0.324E+00    0.134E+00
RMM:   2    -0.253755257258E+04   -0.65007E-01   -0.58717E-01  7737   0.131E+00    0.784E-01
RMM:   3    -0.253757321269E+04   -0.20640E-01   -0.16690E-01  8623   0.398E-01    0.416E-01
RMM:   4    -0.253757322034E+04   -0.76502E-05   -0.18229E-02  9124   0.132E-01    0.414E-01
RMM:   5    -0.253757313481E+04    0.85529E-04   -0.53271E-03  8693   0.513E-02    0.289E-01
RMM:   6    -0.253757244272E+04    0.69209E-03   -0.44629E-03  8335   0.715E-02    0.250E-01
RMM:   7    -0.253757260459E+04   -0.16188E-03   -0.22245E-03  7655   0.475E-02    0.921E-02
RMM:   8    -0.253757255332E+04    0.51277E-04   -0.18369E-04  3845   0.289E-02
 165 F= -.25375726E+04 E0= -.25375609E+04  d E =-.367693E-01  mag=   242.0000
       N       E                     dE             d eps       ncg     rms          rms(c)
DAV:   1    -0.253747225337E+04    0.10035E+00   -0.20407E+01  6400   0.402E+00    0.175E+00
RMM:   2    -0.253757079085E+04   -0.98537E-01   -0.86827E-01  7682   0.161E+00    0.102E+00
RMM:   3    -0.253760318889E+04   -0.32398E-01   -0.25666E-01  8547   0.493E-01    0.496E-01
RMM:   4    -0.253760322590E+04   -0.37010E-04   -0.27760E-02  9021   0.167E-01    0.485E-01
RMM:   5    -0.253760315412E+04    0.71781E-04   -0.88487E-03  9085   0.610E-02    0.347E-01
RMM:   6    -0.253760211193E+04    0.10422E-02   -0.59467E-03  8476   0.820E-02    0.269E-01
RMM:   7    -0.253760235637E+04   -0.24443E-03   -0.34677E-03  8230   0.549E-02    0.999E-02
RMM:   8    -0.253760225428E+04    0.10208E-03   -0.22606E-04  3935   0.295E-02    0.718E-02
RMM:   9    -0.253760220971E+04    0.44570E-04   -0.19864E-04  3919   0.249E-02
 166 F= -.25376022E+04 E0= -.25375914E+04  d E =-.296564E-01  mag=   242.0000
       N       E                     dE             d eps       ncg     rms          rms(c)
DAV:   1    -0.253759525291E+04    0.70014E-02   -0.17553E+00  6720   0.118E+00    0.504E-01
RMM:   2    -0.253760382664E+04   -0.85737E-02   -0.75250E-02  7686   0.474E-01    0.284E-01
RMM:   3    -0.253760666958E+04   -0.28429E-02   -0.22686E-02  8469   0.146E-01    0.142E-01
RMM:   4    -0.253760665676E+04    0.12825E-04   -0.24309E-03  7683   0.499E-02    0.129E-01
RMM:   5    -0.253760660604E+04    0.50711E-04   -0.44302E-04  4709   0.270E-02
 167 F= -.25376066E+04 E0= -.25375960E+04  d E =-.340527E-01  mag=   242.0000
       N       E                     dE             d eps       ncg     rms          rms(c)
DAV:   1    -0.253756578921E+04    0.40868E-01   -0.69077E+00  6400   0.234E+00    0.988E-01
RMM:   2    -0.253759841392E+04   -0.32625E-01   -0.28541E-01  7628   0.930E-01    0.539E-01
RMM:   3    -0.253760950301E+04   -0.11089E-01   -0.89462E-02  8532   0.291E-01    0.284E-01
RMM:   4    -0.253760960749E+04   -0.10448E-03   -0.10315E-02  8899   0.945E-02    0.239E-01
RMM:   5    -0.253760936634E+04    0.24114E-03   -0.29387E-03  8056   0.413E-02    0.173E-01
RMM:   6    -0.253760917598E+04    0.19036E-03   -0.22430E-03  7705   0.515E-02    0.115E-01
RMM:   7    -0.253760923364E+04   -0.57661E-04   -0.51716E-04  5077   0.327E-02
 168 F= -.25376092E+04 E0= -.25375991E+04  d E =-.366803E-01  mag=   242.0000
       N       E                     dE             d eps       ncg     rms          rms(c)
DAV:   1    -0.253748937576E+04    0.11980E+00   -0.23946E+01  6400   0.435E+00    0.172E+00
RMM:   2    -0.253760151266E+04   -0.11214E+00   -0.10030E+00  7659   0.173E+00    0.934E-01
RMM:   3    -0.253763789467E+04   -0.36382E-01   -0.29733E-01  8477   0.532E-01    0.500E-01
RMM:   4    -0.253763806811E+04   -0.17344E-03   -0.32228E-02  9099   0.173E-01    0.427E-01
RMM:   5    -0.253763749147E+04    0.57664E-03   -0.10353E-02  9098   0.680E-02    0.323E-01
RMM:   6    -0.253763659986E+04    0.89161E-03   -0.74244E-03  8527   0.859E-02    0.193E-01
RMM:   7    -0.253763689249E+04   -0.29264E-03   -0.27377E-03  8132   0.480E-02    0.946E-02
RMM:   8    -0.253763678387E+04    0.10862E-03   -0.23126E-04  3951   0.290E-02    0.679E-02
RMM:   9    -0.253763675306E+04    0.30812E-04   -0.21221E-04  3904   0.257E-02
 169 F= -.25376368E+04 E0= -.25376273E+04  d E =-.275194E-01  mag=   242.0000
       N       E                     dE             d eps       ncg     rms          rms(c)
DAV:   1    -0.253763331681E+04    0.34671E-02   -0.85127E-01  6720   0.821E-01    0.322E-01
RMM:   2    -0.253763739851E+04   -0.40817E-02   -0.36400E-02  7606   0.332E-01    0.173E-01
RMM:   3    -0.253763877284E+04   -0.13743E-02   -0.11353E-02  8425   0.104E-01    0.951E-02
RMM:   4    -0.253763875504E+04    0.17799E-04   -0.10626E-03  6115   0.356E-02    0.787E-02
RMM:   5    -0.253763871904E+04    0.36003E-04   -0.20415E-04  3895   0.248E-02
 170 F= -.25376387E+04 E0= -.25376294E+04  d E =-.294854E-01  mag=   242.0000
       N       E                     dE             d eps       ncg     rms          rms(c)
DAV:   1    -0.253762689552E+04    0.11860E-01   -0.46981E+00  6720   0.197E+00    0.906E-01
RMM:   2    -0.253764896146E+04   -0.22066E-01   -0.22935E-01  7684   0.837E-01    0.550E-01
RMM:   3    -0.253765675160E+04   -0.77901E-02   -0.69287E-02  8777   0.264E-01    0.289E-01
RMM:   4    -0.253765666188E+04    0.89716E-04   -0.80071E-03  8893   0.853E-02    0.235E-01
RMM:   5    -0.253765636615E+04    0.29574E-03   -0.20012E-03  7777   0.423E-02    0.165E-01
RMM:   6    -0.253765626501E+04    0.10114E-03   -0.14314E-03  6802   0.445E-02    0.101E-01
RMM:   7    -0.253765632172E+04   -0.56719E-04   -0.40749E-04  4450   0.336E-02
 171 F= -.25376563E+04 E0= -.25376471E+04  d E =-.176027E-01  mag=   242.0000
       N       E                     dE             d eps       ncg     rms          rms(c)
DAV:   1    -0.253762325850E+04    0.33007E-01   -0.55703E+00  6400   0.214E+00    0.993E-01
RMM:   2    -0.253765019001E+04   -0.26932E-01   -0.28154E-01  7792   0.911E-01    0.618E-01
RMM:   3    -0.253765918089E+04   -0.89909E-02   -0.78931E-02  8808   0.279E-01    0.317E-01
RMM:   4    -0.253765905057E+04    0.13032E-03   -0.90277E-03  9090   0.914E-02    0.254E-01
RMM:   5    -0.253765872761E+04    0.32295E-03   -0.24772E-03  8191   0.446E-02    0.182E-01
RMM:   6    -0.253765862595E+04    0.10166E-03   -0.16143E-03  7142   0.460E-02    0.108E-01
RMM:   7    -0.253765869079E+04   -0.64834E-04   -0.44311E-04  4675   0.328E-02
 172 F= -.25376587E+04 E0= -.25376496E+04  d E =-.199717E-01  mag=   242.0000
       N       E                     dE             d eps       ncg     rms          rms(c)
DAV:   1    -0.253765612901E+04    0.24969E-02   -0.13254E+00  6720   0.105E+00    0.410E-01
RMM:   2    -0.253766209443E+04   -0.59654E-02   -0.61042E-02  7493   0.458E-01    0.273E-01
RMM:   3    -0.253766474258E+04   -0.26481E-02   -0.23513E-02  8656   0.158E-01    0.143E-01
RMM:   4    -0.253766483798E+04   -0.95402E-04   -0.27836E-03  7435   0.522E-02    0.119E-01
RMM:   5    -0.253766477073E+04    0.67253E-04   -0.35905E-04  4378   0.269E-02
 173 F= -.25376648E+04 E0= -.25376557E+04  d E =-.607994E-02  mag=   242.0000
       N       E                     dE             d eps       ncg     rms          rms(c)
DAV:   1    -0.253765351495E+04    0.11323E-01   -0.25886E+00  6400   0.146E+00    0.553E-01
RMM:   2    -0.253766476867E+04   -0.11254E-01   -0.11341E-01  7411   0.637E-01    0.357E-01
RMM:   3    -0.253766984657E+04   -0.50779E-02   -0.45603E-02  8762   0.223E-01    0.203E-01
RMM:   4    -0.253767005246E+04   -0.20589E-03   -0.58031E-03  8359   0.687E-02    0.169E-01
RMM:   5    -0.253766989667E+04    0.15579E-03   -0.10885E-03  6162   0.340E-02    0.127E-01
RMM:   6    -0.253766983729E+04    0.59374E-04   -0.97734E-04  6188   0.367E-02
 174 F= -.25376698E+04 E0= -.25376607E+04  d E =-.111465E-01  mag=   242.0000
       N       E                     dE             d eps       ncg     rms          rms(c)
DAV:   1    -0.253760228747E+04    0.67609E-01   -0.10371E+01  6400   0.293E+00    0.112E+00
RMM:   2    -0.253764732483E+04   -0.45037E-01   -0.45557E-01  7410   0.128E+00    0.712E-01
RMM:   3    -0.253766811290E+04   -0.20788E-01   -0.18543E-01  8760   0.449E-01    0.382E-01
RMM:   4    -0.253766897886E+04   -0.86597E-03   -0.22713E-02  8906   0.138E-01    0.323E-01
RMM:   5    -0.253766853415E+04    0.44471E-03   -0.48181E-03  8645   0.537E-02    0.248E-01
RMM:   6    -0.253766812121E+04    0.41294E-03   -0.32243E-03  8338   0.565E-02    0.153E-01
RMM:   7    -0.253766831109E+04   -0.18988E-03   -0.20031E-03  7594   0.440E-02    0.853E-02
RMM:   8    -0.253766830207E+04    0.90160E-05   -0.20000E-04  3856   0.260E-02
 175 F= -.25376683E+04 E0= -.25376591E+04  d E =-.961128E-02  mag=   242.0000
       N       E                     dE             d eps       ncg     rms          rms(c)
DAV:   1    -0.253765618301E+04    0.12128E-01   -0.24254E+00  6400   0.142E+00    0.524E-01
RMM:   2    -0.253766660951E+04   -0.10427E-01   -0.10255E-01  7294   0.620E-01    0.335E-01
