       N       E                     dE             d eps       ncg     rms          rms(c)
DAV:   1     0.400693080598E+05    0.40069E+05   -0.85837E+05  6800   0.261E+03
DAV:   2     0.144068676922E+05   -0.25662E+05   -0.22941E+05  6800   0.688E+02
DAV:   3     0.354141016297E+04   -0.10865E+05   -0.96684E+04  6720   0.353E+02
DAV:   4    -0.158809744939E+04   -0.51295E+04   -0.47604E+04  9680   0.196E+02
DAV:   5    -0.278348388114E+04   -0.11954E+04   -0.11577E+04 10880   0.106E+02    0.208E+02
RMM:   6    -0.248713862120E+04    0.29635E+03   -0.70096E+03  8789   0.104E+02    0.329E+02
RMM:   7    -0.255592950725E+04   -0.68791E+02   -0.17227E+03  9362   0.337E+01    0.190E+02
RMM:   8    -0.244913696377E+04    0.10679E+03   -0.11157E+03  7291   0.527E+01    0.974E+01
RMM:   9    -0.252143660860E+04   -0.72300E+02   -0.70484E+02  8761   0.175E+01    0.703E+01
RMM:  10    -0.252243887574E+04   -0.10023E+01   -0.18074E+02  8484   0.132E+01    0.379E+01
RMM:  11    -0.251780913316E+04    0.46297E+01   -0.10257E+02  9258   0.803E+00    0.254E+01
RMM:  12    -0.251806293451E+04   -0.25380E+00   -0.41632E+01  9953   0.427E+00    0.220E+01
RMM:  13    -0.251794064627E+04    0.12229E+00   -0.10299E+01 10128   0.179E+00    0.201E+01
RMM:  14    -0.251800476923E+04   -0.64123E-01   -0.43755E+00  9051   0.155E+00    0.168E+01
RMM:  15    -0.251794658310E+04    0.58186E-01   -0.20267E+00  9851   0.985E-01    0.127E+01
RMM:  16    -0.251757737333E+04    0.36921E+00   -0.99667E-01  9389   0.775E-01    0.102E+01
RMM:  17    -0.251728978150E+04    0.28759E+00   -0.16728E+00  9164   0.106E+00    0.642E+00
RMM:  18    -0.251726236333E+04    0.27418E-01   -0.10246E+00  9681   0.783E-01    0.430E+00
RMM:  19    -0.251726990346E+04   -0.75401E-02   -0.22933E-01  9052   0.372E-01    0.323E+00
RMM:  20    -0.251728547714E+04   -0.15574E-01   -0.89814E-02  9285   0.225E-01    0.241E+00
RMM:  21    -0.251728934459E+04   -0.38675E-02   -0.46219E-02  9311   0.152E-01    0.152E+00
RMM:  22    -0.251728319868E+04    0.61459E-02   -0.48746E-02  8282   0.186E-01    0.799E-01
RMM:  23    -0.251728293081E+04    0.26787E-03   -0.39758E-02  8801   0.145E-01    0.457E-01
RMM:  24    -0.251728422238E+04   -0.12916E-02   -0.27421E-02  8225   0.131E-01    0.208E-01
RMM:  25    -0.251728553557E+04   -0.13132E-02   -0.13964E-02  7538   0.753E-02    0.146E-01
RMM:  26    -0.251728637116E+04   -0.83559E-03   -0.11022E-02  5108   0.573E-02    0.908E-02
RMM:  27    -0.251728691260E+04   -0.54144E-03   -0.69795E-03  5883   0.527E-02    0.573E-02
RMM:  28    -0.251728729159E+04   -0.37900E-03   -0.40616E-03  5708   0.504E-02    0.459E-02
RMM:  29    -0.251728760699E+04   -0.31540E-03   -0.30469E-03  4997   0.405E-02    0.440E-02
RMM:  30    -0.251728780945E+04   -0.20245E-03   -0.22542E-03  4443   0.369E-02    0.256E-02
RMM:  31    -0.251728796799E+04   -0.15854E-03   -0.17479E-03  4491   0.294E-02    0.373E-02
RMM:  32    -0.251728811272E+04   -0.14473E-03   -0.14519E-03  4445   0.252E-02    0.226E-02
RMM:  33    -0.251728822141E+04   -0.10869E-03   -0.10651E-03  4383   0.214E-02    0.255E-02
RMM:  34    -0.251728829699E+04   -0.75575E-04   -0.83057E-04  4323   0.199E-02
   1 F= -.25172883E+04 E0= -.25172683E+04  d E =-.251729E+04  mag=   238.0497
       N       E                     dE             d eps       ncg     rms          rms(c)
DAV:   1    -0.251424236095E+04    0.30459E+01   -0.12867E+03  6800   0.293E+01    0.170E+01
RMM:   2    -0.252053955740E+04   -0.62972E+01   -0.71109E+01  7585   0.125E+01    0.101E+01
RMM:   3    -0.252255700128E+04   -0.20174E+01   -0.18265E+01  8499   0.399E+00    0.505E+00
RMM:   4    -0.252251507323E+04    0.41928E-01   -0.18878E+00  8199   0.167E+00    0.465E+00
RMM:   5    -0.252250232994E+04    0.12743E-01   -0.62220E-01  9527   0.551E-01    0.364E+00
RMM:   6    -0.252244827656E+04    0.54053E-01   -0.20959E-01  8940   0.441E-01    0.273E+00
RMM:   7    -0.252244190881E+04    0.63678E-02   -0.20513E-01  8797   0.380E-01    0.149E+00
RMM:   8    -0.252244972806E+04   -0.78193E-02   -0.54602E-02  9601   0.209E-01    0.762E-01
RMM:   9    -0.252244774907E+04    0.19790E-02   -0.16064E-02  8867   0.127E-01    0.586E-01
RMM:  10    -0.252244746175E+04    0.28732E-03   -0.69751E-03  8698   0.822E-02    0.379E-01
RMM:  11    -0.252244778641E+04   -0.32466E-03   -0.41799E-03  8606   0.479E-02    0.198E-01
RMM:  12    -0.252244798591E+04   -0.19950E-03   -0.92535E-04  5728   0.365E-02    0.143E-01
RMM:  13    -0.252244803668E+04   -0.50776E-04   -0.40126E-04  4455   0.347E-02
   2 F= -.25224480E+04 E0= -.25224285E+04  d E =-.515974E+01  mag=   241.8835
       N       E                     dE             d eps       ncg     rms          rms(c)
DAV:   1    -0.250706717786E+04    0.15381E+02   -0.30690E+03  6560   0.451E+01    0.304E+01
RMM:   2    -0.252299202486E+04   -0.15925E+02   -0.17107E+02  7480   0.189E+01    0.141E+01
RMM:   3    -0.252725825313E+04   -0.42662E+01   -0.40041E+01  8456   0.613E+00    0.878E+00
RMM:   4    -0.252700416318E+04    0.25409E+00   -0.42365E+00  8152   0.259E+00    0.776E+00
RMM:   5    -0.252684153204E+04    0.16263E+00   -0.14012E+00  9359   0.925E-01    0.611E+00
RMM:   6    -0.252665492809E+04    0.18660E+00   -0.10300E+00  8644   0.838E-01    0.365E+00
RMM:   7    -0.252668652540E+04   -0.31597E-01   -0.60416E-01  9490   0.596E-01    0.173E+00
RMM:   8    -0.252666810755E+04    0.18418E-01   -0.10640E-01  8898   0.331E-01    0.123E+00
RMM:   9    -0.252666370051E+04    0.44070E-02   -0.67121E-02  9145   0.230E-01    0.741E-01
RMM:  10    -0.252666459480E+04   -0.89429E-03   -0.25869E-02 10146   0.115E-01    0.419E-01
RMM:  11    -0.252666424339E+04    0.35141E-03   -0.47029E-03  8939   0.568E-02    0.236E-01
RMM:  12    -0.252666433553E+04   -0.92137E-04   -0.30763E-03  7843   0.468E-02    0.143E-01
RMM:  13    -0.252666437998E+04   -0.44452E-04   -0.82048E-04  5612   0.339E-02
   3 F= -.25266644E+04 E0= -.25266503E+04  d E =-.937608E+01  mag=   245.8463
       N       E                     dE             d eps       ncg     rms          rms(c)
DAV:   1    -0.252523715086E+04    0.14272E+01   -0.23906E+02  6240   0.129E+01    0.736E+00
RMM:   2    -0.252634556932E+04   -0.11084E+01   -0.12992E+01  7599   0.543E+00    0.423E+00
RMM:   3    -0.252663202493E+04   -0.28646E+00   -0.29679E+00  8877   0.169E+00    0.233E+00
RMM:   4    -0.252660713338E+04    0.24892E-01   -0.39764E-01  9514   0.550E-01    0.176E+00
RMM:   5    -0.252658848459E+04    0.18649E-01   -0.13986E-01  9247   0.298E-01    0.146E+00
RMM:   6    -0.252658729324E+04    0.11913E-02   -0.70308E-02  9361   0.189E-01    0.619E-01
RMM:   7    -0.252658752750E+04   -0.23426E-03   -0.21001E-02  9144   0.135E-01    0.352E-01
RMM:   8    -0.252658721116E+04    0.31634E-03   -0.10011E-02  9599   0.699E-02    0.238E-01
RMM:   9    -0.252658719927E+04    0.11891E-04   -0.28720E-03  7959   0.395E-02    0.150E-01
RMM:  10    -0.252658715231E+04    0.46959E-04   -0.55774E-04  4475   0.295E-02
   4 F= -.25265872E+04 E0= -.25265745E+04  d E =-.929886E+01  mag=   245.9875
       N       E                     dE             d eps       ncg     rms          rms(c)
DAV:   1    -0.252645568905E+04    0.13151E+00   -0.67099E+01  6400   0.673E+00    0.419E+00
RMM:   2    -0.252675310850E+04   -0.29742E+00   -0.34092E+00  7638   0.276E+00    0.198E+00
RMM:   3    -0.252682532718E+04   -0.72219E-01   -0.76490E-01  8797   0.864E-01    0.109E+00
RMM:   4    -0.252682292956E+04    0.23976E-02   -0.10149E-01  9618   0.277E-01    0.840E-01
RMM:   5    -0.252681872920E+04    0.42004E-02   -0.27794E-02  9311   0.130E-01    0.662E-01
RMM:   6    -0.252681769982E+04    0.10294E-02   -0.14965E-02  8949   0.925E-02    0.307E-01
RMM:   7    -0.252681804501E+04   -0.34518E-03   -0.56378E-03  8792   0.681E-02    0.150E-01
RMM:   8    -0.252681794089E+04    0.10412E-03   -0.14382E-03  6834   0.355E-02    0.112E-01
RMM:   9    -0.252681791711E+04    0.23783E-04   -0.44182E-04  4385   0.301E-02
   5 F= -.25268179E+04 E0= -.25268044E+04  d E =-.952962E+01  mag=   245.9987
       N       E                     dE             d eps       ncg     rms          rms(c)
DAV:   1    -0.252549721181E+04    0.13207E+01   -0.68837E+02  6320   0.222E+01    0.142E+01
RMM:   2    -0.252789629737E+04   -0.23991E+01   -0.33364E+01  7626   0.884E+00    0.741E+00
RMM:   3    -0.252847192141E+04   -0.57562E+00   -0.72811E+00  8496   0.281E+00    0.417E+00
RMM:   4    -0.252840955124E+04    0.62370E-01   -0.96059E-01  9285   0.996E-01    0.323E+00
RMM:   5    -0.252835797408E+04    0.51577E-01   -0.39350E-01  8879   0.520E-01    0.238E+00
RMM:   6    -0.252836276268E+04   -0.47886E-02   -0.17739E-01  9396   0.341E-01    0.128E+00
RMM:   7    -0.252836764233E+04   -0.48796E-02   -0.55701E-02 10170   0.167E-01    0.537E-01
RMM:   8    -0.252836368361E+04    0.39587E-02   -0.14988E-02  9396   0.100E-01    0.363E-01
RMM:   9    -0.252836223230E+04    0.14513E-02   -0.10525E-02  8807   0.782E-02    0.208E-01
RMM:  10    -0.252836230085E+04   -0.68545E-04   -0.41496E-03  8081   0.480E-02    0.139E-01
RMM:  11    -0.252836227964E+04    0.21206E-04   -0.73332E-04  5282   0.393E-02
   6 F= -.25283623E+04 E0= -.25283476E+04  d E =-.154436E+01  mag=   245.9999
       N       E                     dE             d eps       ncg     rms          rms(c)
DAV:   1    -0.252835864244E+04    0.36584E-02   -0.22582E+00  7520   0.125E+00    0.776E-01
RMM:   2    -0.252836631696E+04   -0.76745E-02   -0.11451E-01  7789   0.484E-01    0.419E-01
RMM:   3    -0.252836820588E+04   -0.18889E-02   -0.23989E-02  8540   0.152E-01    0.239E-01
RMM:   4    -0.252836783864E+04    0.36724E-03   -0.25291E-03  6860   0.582E-02    0.178E-01
RMM:   5    -0.252836765383E+04    0.18481E-03   -0.18640E-03  6186   0.402E-02    0.140E-01
RMM:   6    -0.252836769488E+04   -0.41054E-04   -0.64804E-04  4994   0.326E-02
   7 F= -.25283677E+04 E0= -.25283531E+04  d E =-.154978E+01  mag=   246.0000
       N       E                     dE             d eps       ncg     rms          rms(c)
DAV:   1    -0.252879121701E+04   -0.42356E+00   -0.13297E+02  7440   0.113E+01    0.111E+01
RMM:   2    -0.252928760133E+04   -0.49638E+00   -0.91669E+00  7470   0.552E+00    0.802E+00
RMM:   3    -0.252969928234E+04   -0.41168E+00   -0.34315E+00  8544   0.180E+00    0.306E+00
RMM:   4    -0.252966532053E+04    0.33962E-01   -0.52246E-01  8484   0.876E-01    0.289E+00
RMM:   5    -0.252966259325E+04    0.27273E-02   -0.16793E-01  9731   0.305E-01    0.185E+00
RMM:   6    -0.252965338098E+04    0.92123E-02   -0.65416E-02  8473   0.261E-01    0.778E-01
RMM:   7    -0.252965454462E+04   -0.11636E-02   -0.25647E-02  9371   0.155E-01    0.680E-01
RMM:   8    -0.252965422754E+04    0.31709E-03   -0.59060E-03  9113   0.665E-02    0.253E-01
RMM:   9    -0.252965393201E+04    0.29553E-03   -0.39177E-03  8687   0.552E-02    0.125E-01
RMM:  10    -0.252965387491E+04    0.57093E-04   -0.12503E-03  6653   0.381E-02    0.107E-01
RMM:  11    -0.252965386367E+04    0.11241E-04   -0.34793E-04  4210   0.276E-02
   8 F= -.25296539E+04 E0= -.25296400E+04  d E =-.128617E+01  mag=   246.0000
       N       E                     dE             d eps       ncg     rms          rms(c)
DAV:   1    -0.252964237929E+04    0.11496E-01   -0.31786E+01  7520   0.550E+00    0.541E+00
RMM:   2    -0.252974815180E+04   -0.10577E+00   -0.21071E+00  7528   0.261E+00    0.390E+00
RMM:   3    -0.252984281363E+04   -0.94662E-01   -0.77280E-01  8577   0.837E-01    0.142E+00
RMM:   4    -0.252983465501E+04    0.81586E-02   -0.11536E-01  8391   0.425E-01    0.136E+00
RMM:   5    -0.252983425654E+04    0.39847E-03   -0.39545E-02  9498   0.149E-01    0.869E-01
RMM:   6    -0.252983230011E+04    0.19564E-02   -0.15956E-02  8512   0.135E-01    0.349E-01
RMM:   7    -0.252983243922E+04   -0.13912E-03   -0.55794E-03  8758   0.749E-02    0.343E-01
RMM:   8    -0.252983238367E+04    0.55550E-04   -0.12742E-03  6375   0.365E-02    0.124E-01
RMM:   9    -0.252983230579E+04    0.77887E-04   -0.77228E-04  5650   0.345E-02
   9 F= -.25298323E+04 E0= -.25298187E+04  d E =-.146461E+01  mag=   246.0000
       N       E                     dE             d eps       ncg     rms          rms(c)
DAV:   1    -0.252983193881E+04    0.44487E-03   -0.66372E-01  8080   0.793E-01    0.772E-01
RMM:   2    -0.252983449335E+04   -0.25545E-02   -0.43918E-02  7520   0.375E-01    0.577E-01
RMM:   3    -0.252983659779E+04   -0.21044E-02   -0.16454E-02  8544   0.120E-01    0.210E-01
RMM:   4    -0.252983643078E+04    0.16701E-03   -0.22847E-03  7175   0.603E-02    0.203E-01
RMM:   5    -0.252983637892E+04    0.51860E-04   -0.53523E-04  4789   0.298E-02
  10 F= -.25298364E+04 E0= -.25298228E+04  d E =-.146868E+01  mag=   246.0000
       N       E                     dE             d eps       ncg     rms          rms(c)
DAV:   1    -0.252979589376E+04    0.40537E-01   -0.36135E+01  6640   0.517E+00    0.437E+00
RMM:   2    -0.253007910121E+04   -0.28321E+00   -0.17420E+00  7484   0.237E+00    0.244E+00
RMM:   3    -0.253019890995E+04   -0.11981E+00   -0.71046E-01  8761   0.775E-01    0.878E-01
RMM:   4    -0.253019751314E+04    0.13968E-02   -0.73674E-02  8972   0.295E-01    0.807E-01
RMM:   5    -0.253019617349E+04    0.13397E-02   -0.21453E-02  9869   0.101E-01    0.555E-01
RMM:   6    -0.253019321231E+04    0.29612E-02   -0.96235E-03  8569   0.968E-02    0.339E-01
RMM:   7    -0.253019311475E+04    0.97555E-04   -0.65573E-03  8775   0.688E-02    0.227E-01
RMM:   8    -0.253019328278E+04   -0.16803E-03   -0.15487E-03  6973   0.350E-02    0.108E-01
RMM:   9    -0.253019324871E+04    0.34077E-04   -0.25052E-04  4087   0.281E-02
  11 F= -.25301932E+04 E0= -.25301806E+04  d E =-.356870E+00  mag=   246.0000
       N       E                     dE             d eps       ncg     rms          rms(c)
DAV:   1    -0.252846260269E+04    0.17307E+01   -0.19261E+02  6560   0.119E+01    0.102E+01
RMM:   2    -0.252998347885E+04   -0.15209E+01   -0.92732E+00  7522   0.541E+00    0.565E+00
RMM:   3    -0.253061672037E+04   -0.63324E+00   -0.37215E+00  8745   0.176E+00    0.203E+00
RMM:   4    -0.253060553789E+04    0.11182E-01   -0.36913E-01  8916   0.682E-01    0.189E+00
RMM:   5    -0.253059898546E+04    0.65524E-02   -0.11217E-01  9983   0.236E-01    0.126E+00
RMM:   6    -0.253058331457E+04    0.15671E-01   -0.51783E-02  8663   0.221E-01    0.741E-01
RMM:   7    -0.253058303972E+04    0.27486E-03   -0.34373E-02  9381   0.149E-01    0.481E-01
RMM:   8    -0.253058386096E+04   -0.82125E-03   -0.79252E-03  8686   0.721E-02    0.280E-01
RMM:   9    -0.253058364076E+04    0.22021E-03   -0.17030E-03  6779   0.452E-02    0.145E-01
RMM:  10    -0.253058358383E+04    0.56923E-04   -0.10921E-03  6046   0.360E-02    0.109E-01
RMM:  11    -0.253058363206E+04   -0.48222E-04   -0.54481E-04  4854   0.318E-02
  12 F= -.25305836E+04 E0= -.25305732E+04  d E =-.747253E+00  mag=   246.0000
       N       E                     dE             d eps       ncg     rms          rms(c)
DAV:   1    -0.253040993263E+04    0.17365E+00   -0.79689E+01  6080   0.767E+00    0.353E+00
RMM:   2    -0.253082139440E+04   -0.41146E+00   -0.36102E+00  7981   0.290E+00    0.171E+00
RMM:   3    -0.253092783408E+04   -0.10644E+00   -0.84015E-01  8807   0.813E-01    0.926E-01
RMM:   4    -0.253092254456E+04    0.52895E-02   -0.87947E-02  9394   0.277E-01    0.759E-01
RMM:   5    -0.253091701240E+04    0.55322E-02   -0.26434E-02  9406   0.124E-01    0.548E-01
RMM:   6    -0.253091358018E+04    0.34322E-02   -0.23211E-02  8662   0.138E-01    0.337E-01
RMM:   7    -0.253091415999E+04   -0.57981E-03   -0.97355E-03  9476   0.743E-02    0.192E-01
RMM:   8    -0.253091394283E+04    0.21716E-03   -0.12419E-03  6008   0.365E-02    0.116E-01
RMM:   9    -0.253091392636E+04    0.16471E-04   -0.72920E-04  5223   0.331E-02
  13 F= -.25309139E+04 E0= -.25309048E+04  d E =-.330294E+00  mag=   246.0000
       N       E                     dE             d eps       ncg     rms          rms(c)
DAV:   1    -0.253057376602E+04    0.34018E+00   -0.82950E+01  6080   0.784E+00    0.378E+00
RMM:   2    -0.253100691994E+04   -0.43315E+00   -0.38088E+00  8012   0.295E+00    0.177E+00
RMM:   3    -0.253111537671E+04   -0.10846E+00   -0.86275E-01  8841   0.821E-01    0.953E-01
RMM:   4    -0.253110892091E+04    0.64558E-02   -0.89588E-02  9315   0.281E-01    0.758E-01
RMM:   5    -0.253110330413E+04    0.56168E-02   -0.29380E-02  9358   0.134E-01    0.544E-01
RMM:   6    -0.253110072890E+04    0.25752E-02   -0.22393E-02  8690   0.133E-01    0.330E-01
RMM:   7    -0.253110124524E+04   -0.51634E-03   -0.80495E-03  9157   0.706E-02    0.190E-01
RMM:   8    -0.253110105352E+04    0.19172E-03   -0.12250E-03  6058   0.369E-02    0.117E-01
RMM:   9    -0.253110105055E+04    0.29643E-05   -0.65724E-04  5026   0.338E-02
  14 F= -.25311011E+04 E0= -.25310929E+04  d E =-.517418E+00  mag=   246.0000
       N       E                     dE             d eps       ncg     rms          rms(c)
DAV:   1    -0.253099557699E+04    0.10548E+00   -0.19638E+01  6240   0.380E+00    0.190E+00
RMM:   2    -0.253109968507E+04   -0.10411E+00   -0.91749E-01  8079   0.143E+00    0.895E-01
RMM:   3    -0.253112469794E+04   -0.25013E-01   -0.20054E-01  8922   0.393E-01    0.477E-01
RMM:   4    -0.253112288626E+04    0.18117E-02   -0.20644E-02  9101   0.139E-01    0.366E-01
RMM:   5    -0.253112162424E+04    0.12620E-02   -0.76831E-03  8792   0.706E-02    0.269E-01
RMM:   6    -0.253112123338E+04    0.39086E-03   -0.49598E-03  8289   0.638E-02    0.156E-01
RMM:   7    -0.253112131709E+04   -0.83715E-04   -0.13565E-03  6595   0.369E-02    0.904E-02
RMM:   8    -0.253112129048E+04    0.26613E-04   -0.23808E-04  3955   0.287E-02
  15 F= -.25311213E+04 E0= -.25311135E+04  d E =-.537658E+00  mag=   246.0000
       N       E                     dE             d eps       ncg     rms          rms(c)
DAV:   1    -0.253098700563E+04    0.13431E+00   -0.69124E+01  6320   0.740E+00    0.330E+00
RMM:   2    -0.253130629551E+04   -0.31929E+00   -0.36466E+00  7972   0.297E+00    0.232E+00
RMM:   3    -0.253139866932E+04   -0.92374E-01   -0.84320E-01  8834   0.868E-01    0.116E+00
RMM:   4    -0.253139270976E+04    0.59596E-02   -0.92530E-02  9499   0.303E-01    0.951E-01
RMM:   5    -0.253138512804E+04    0.75817E-02   -0.38502E-02  8829   0.166E-01    0.617E-01
RMM:   6    -0.253138472958E+04    0.39846E-03   -0.25732E-02  8837   0.143E-01    0.320E-01
RMM:   7    -0.253138500460E+04   -0.27502E-03   -0.69269E-03  9092   0.627E-02    0.192E-01
RMM:   8    -0.253138458456E+04    0.42004E-03   -0.19626E-03  7438   0.408E-02    0.111E-01
RMM:   9    -0.253138451563E+04    0.68936E-04   -0.10962E-03  6036   0.354E-02    0.661E-02
RMM:  10    -0.253138451846E+04   -0.28313E-05   -0.26991E-04  4065   0.267E-02
  16 F= -.25313845E+04 E0= -.25313769E+04  d E =-.263228E+00  mag=   246.0000
       N       E                     dE             d eps       ncg     rms          rms(c)
DAV:   1    -0.253120236981E+04    0.18215E+00   -0.56585E+01  6640   0.668E+00    0.302E+00
RMM:   2    -0.253146058768E+04   -0.25822E+00   -0.29493E+00  8021   0.265E+00    0.212E+00
RMM:   3    -0.253153384083E+04   -0.73253E-01   -0.67015E-01  8792   0.768E-01    0.105E+00
RMM:   4    -0.253152838032E+04    0.54605E-02   -0.72446E-02  9464   0.266E-01    0.840E-01
RMM:   5    -0.253152219628E+04    0.61840E-02   -0.33455E-02  8733   0.156E-01    0.528E-01
RMM:   6    -0.253152218721E+04    0.90669E-05   -0.19857E-02  8979   0.125E-01    0.290E-01
RMM:   7    -0.253152232864E+04   -0.14143E-03   -0.49417E-03  8748   0.531E-02    0.169E-01
RMM:   8    -0.253152202216E+04    0.30648E-03   -0.15159E-03  6820   0.369E-02    0.954E-02
RMM:   9    -0.253152197550E+04    0.46666E-04   -0.94101E-04  5654   0.335E-02
  17 F= -.25315220E+04 E0= -.25315143E+04  d E =-.400685E+00  mag=   246.0000
       N       E                     dE             d eps       ncg     rms          rms(c)
DAV:   1    -0.253013814788E+04    0.13839E+01   -0.22640E+02  6480   0.134E+01    0.641E+00
RMM:   2    -0.253119594232E+04   -0.10578E+01   -0.12023E+01  7989   0.532E+00    0.457E+00
RMM:   3    -0.253149016089E+04   -0.29422E+00   -0.27035E+00  8831   0.155E+00    0.218E+00
RMM:   4    -0.253146602715E+04    0.24134E-01   -0.29440E-01  9488   0.549E-01    0.174E+00
RMM:   5    -0.253144112438E+04    0.24903E-01   -0.13968E-01  8832   0.318E-01    0.110E+00
RMM:   6    -0.253144155019E+04   -0.42581E-03   -0.77610E-02  9125   0.242E-01    0.580E-01
RMM:   7    -0.253144196318E+04   -0.41299E-03   -0.19114E-02  9796   0.108E-01    0.355E-01
RMM:   8    -0.253144108354E+04    0.87963E-03   -0.73342E-03  9600   0.622E-02    0.185E-01
RMM:   9    -0.253144100590E+04    0.77643E-04   -0.34073E-03  8740   0.449E-02    0.110E-01
RMM:  10    -0.253144095323E+04    0.52665E-04   -0.31438E-04  4133   0.265E-02
  18 F= -.25314410E+04 E0= -.25314325E+04  d E =-.319663E+00  mag=   246.0000
       N       E                     dE             d eps       ncg     rms          rms(c)
DAV:   1    -0.253091201416E+04    0.52899E+00   -0.11855E+02  6960   0.962E+00    0.432E+00
RMM:   2    -0.253144421509E+04   -0.53220E+00   -0.62132E+00  8284   0.367E+00    0.282E+00
RMM:   3    -0.253157750430E+04   -0.13329E+00   -0.12321E+00  8841   0.101E+00    0.148E+00
RMM:   4    -0.253156170506E+04    0.15799E-01   -0.11308E-01  8944   0.398E-01    0.116E+00
RMM:   5    -0.253155164616E+04    0.10059E-01   -0.65512E-02  8708   0.210E-01    0.782E-01
RMM:   6    -0.253155124747E+04    0.39869E-03   -0.38169E-02  8941   0.175E-01    0.422E-01
RMM:   7    -0.253155170938E+04   -0.46190E-03   -0.99680E-03  9207   0.772E-02    0.245E-01
RMM:   8    -0.253155130960E+04    0.39978E-03   -0.31874E-03  8410   0.463E-02    0.141E-01
RMM:   9    -0.253155125191E+04    0.57683E-04   -0.13400E-03  6718   0.366E-02    0.814E-02
RMM:  10    -0.253155126832E+04   -0.16412E-04   -0.28805E-04  4108   0.275E-02
  19 F= -.25315513E+04 E0= -.25315435E+04  d E =-.429978E+00  mag=   246.0000
       N       E                     dE             d eps       ncg     rms          rms(c)
DAV:   1    -0.253155998546E+04   -0.87335E-02   -0.28717E+01  6480   0.459E+00    0.179E+00
RMM:   2    -0.253170291273E+04   -0.14293E+00   -0.14812E+00  8194   0.183E+00    0.109E+00
RMM:   3    -0.253174264761E+04   -0.39735E-01   -0.36760E-01  9055   0.527E-01    0.634E-01
RMM:   4    -0.253174046348E+04    0.21841E-02   -0.36872E-02  9234   0.178E-01    0.491E-01
RMM:   5    -0.253173871708E+04    0.17464E-02   -0.12677E-02  9313   0.861E-02    0.401E-01
RMM:   6    -0.253173757764E+04    0.11394E-02   -0.89596E-03  8705   0.781E-02    0.226E-01
RMM:   7    -0.253173775681E+04   -0.17917E-03   -0.43905E-03  8380   0.574E-02    0.103E-01
RMM:   8    -0.253173763445E+04    0.12236E-03   -0.40408E-04  4281   0.327E-02    0.928E-02
RMM:   9    -0.253173760689E+04    0.27567E-04   -0.24027E-04  3955   0.275E-02
  20 F= -.25317376E+04 E0= -.25317298E+04  d E =-.186339E+00  mag=   246.0000
       N       E                     dE             d eps       ncg     rms          rms(c)
DAV:   1    -0.253126003653E+04    0.47760E+00   -0.10514E+02  6320   0.879E+00    0.351E+00
RMM:   2    -0.253179522703E+04   -0.53519E+00   -0.55338E+00  8208   0.353E+00    0.220E+00
RMM:   3    -0.253194131193E+04   -0.14608E+00   -0.13494E+00  9070   0.101E+00    0.127E+00
RMM:   4    -0.253193317986E+04    0.81321E-02   -0.14080E-01  9478   0.339E-01    0.971E-01
RMM:   5    -0.253192660703E+04    0.65728E-02   -0.48231E-02  9560   0.167E-01    0.820E-01
RMM:   6    -0.253192276710E+04    0.38399E-02   -0.33378E-02  8979   0.145E-01    0.457E-01
RMM:   7    -0.253192349796E+04   -0.73087E-03   -0.15824E-02  9263   0.107E-01    0.207E-01
RMM:   8    -0.253192313447E+04    0.36349E-03   -0.27223E-03  8090   0.544E-02    0.211E-01
RMM:   9    -0.253192308195E+04    0.52518E-04   -0.94742E-04  5713   0.321E-02
  21 F= -.25319231E+04 E0= -.25319151E+04  d E =-.371814E+00  mag=   246.0000
       N       E                     dE             d eps       ncg     rms          rms(c)
DAV:   1    -0.253189525342E+04    0.27881E-01   -0.56671E+00  6480   0.205E+00    0.810E-01
RMM:   2    -0.253192442931E+04   -0.29176E-01   -0.30128E-01  8221   0.815E-01    0.483E-01
RMM:   3    -0.253193236524E+04   -0.79359E-02   -0.73361E-02  9169   0.234E-01    0.286E-01
RMM:   4    -0.253193194662E+04    0.41862E-03   -0.78721E-03  9179   0.800E-02    0.222E-01
RMM:   5    -0.253193159882E+04    0.34780E-03   -0.25892E-03  7663   0.426E-02    0.190E-01
RMM:   6    -0.253193143458E+04    0.16424E-03   -0.17321E-03  7053   0.410E-02    0.997E-02
RMM:   7    -0.253193146620E+04   -0.31620E-04   -0.76502E-04  5421   0.349E-02
  22 F= -.25319315E+04 E0= -.25319235E+04  d E =-.380198E+00  mag=   246.0000
       N       E                     dE             d eps       ncg     rms          rms(c)
DAV:   1    -0.253176496838E+04    0.16647E+00   -0.50784E+01  7040   0.643E+00    0.343E+00
RMM:   2    -0.253197869011E+04   -0.21372E+00   -0.27861E+00  7874   0.273E+00    0.246E+00
RMM:   3    -0.253206605889E+04   -0.87369E-01   -0.83657E-01  8836   0.869E-01    0.107E+00
RMM:   4    -0.253206311115E+04    0.29477E-02   -0.96581E-02  9200   0.297E-01    0.860E-01
RMM:   5    -0.253205920063E+04    0.39105E-02   -0.31834E-02  9393   0.148E-01    0.633E-01
RMM:   6    -0.253205875932E+04    0.44131E-03   -0.17397E-02  9003   0.107E-01    0.307E-01
RMM:   7    -0.253205902132E+04   -0.26201E-03   -0.48196E-03  8932   0.662E-02    0.171E-01
RMM:   8    -0.253205881116E+04    0.21016E-03   -0.13541E-03  6630   0.376E-02    0.116E-01
RMM:   9    -0.253205878641E+04    0.24750E-04   -0.56848E-04  4781   0.319E-02
  23 F= -.25320588E+04 E0= -.25320506E+04  d E =-.127320E+00  mag=   246.0000
       N       E                     dE             d eps       ncg     rms          rms(c)
DAV:   1    -0.253205082610E+04    0.79851E-02   -0.25336E+00  7280   0.144E+00    0.761E-01
RMM:   2    -0.253206206253E+04   -0.11236E-01   -0.14006E-01  7936   0.600E-01    0.573E-01
RMM:   3    -0.253206614460E+04   -0.40821E-02   -0.38784E-02  8917   0.183E-01    0.249E-01
RMM:   4    -0.253206596843E+04    0.17618E-03   -0.45938E-03  8697   0.646E-02    0.193E-01
RMM:   5    -0.253206577759E+04    0.19083E-03   -0.14229E-03  6446   0.381E-02    0.166E-01
RMM:   6    -0.253206578434E+04   -0.67511E-05   -0.87178E-04  5565   0.347E-02
  24 F= -.25320658E+04 E0= -.25320575E+04  d E =-.134318E+00  mag=   246.0000
       N       E                     dE             d eps       ncg     rms          rms(c)
DAV:   1    -0.253199797543E+04    0.67802E-01   -0.99704E+00  6960   0.286E+00    0.151E+00
RMM:   2    -0.253204094854E+04   -0.42973E-01   -0.55511E-01  7928   0.119E+00    0.115E+00
RMM:   3    -0.253205686230E+04   -0.15914E-01   -0.15158E-01  8878   0.363E-01    0.498E-01
RMM:   4    -0.253205616327E+04    0.69904E-03   -0.17780E-02  9262   0.128E-01    0.396E-01
RMM:   5    -0.253205553369E+04    0.62957E-03   -0.60239E-03  8940   0.665E-02    0.332E-01
RMM:   6    -0.253205544809E+04    0.85601E-04   -0.32304E-03  7993   0.510E-02    0.164E-01
RMM:   7    -0.253205549515E+04   -0.47062E-04   -0.77841E-04  5556   0.388E-02
  25 F= -.25320555E+04 E0= -.25320471E+04  d E =-.124029E+00  mag=   246.0000
       N       E                     dE             d eps       ncg     rms          rms(c)
DAV:   1    -0.253206108482E+04   -0.56367E-02   -0.22060E+01  7280   0.458E+00    0.352E+00
RMM:   2    -0.253209093946E+04   -0.29855E-01   -0.14968E+00  7567   0.207E+00    0.284E+00
RMM:   3    -0.253212337653E+04   -0.32437E-01   -0.40436E-01  8666   0.645E-01    0.112E+00
RMM:   4    -0.253211668942E+04    0.66871E-02   -0.61547E-02  8880   0.279E-01    0.930E-01
RMM:   5    -0.253211428109E+04    0.24083E-02   -0.24766E-02  9063   0.132E-01    0.646E-01
RMM:   6    -0.253211433795E+04   -0.56861E-04   -0.99337E-03  9205   0.801E-02    0.255E-01
RMM:   7    -0.253211426422E+04    0.73736E-04   -0.26035E-03  7664   0.544E-02    0.188E-01
RMM:   8    -0.253211416239E+04    0.10183E-03   -0.86009E-04  5682   0.375E-02    0.883E-02
RMM:   9    -0.253211412487E+04    0.37519E-04   -0.46159E-04  4592   0.304E-02
  26 F= -.25321141E+04 E0= -.25321058E+04  d E =-.586297E-01  mag=   246.0000
       N       E                     dE             d eps       ncg     rms          rms(c)
DAV:   1    -0.253211653799E+04   -0.23756E-02   -0.97014E-01  7520   0.965E-01    0.769E-01
RMM:   2    -0.253211734159E+04   -0.80360E-03   -0.66242E-02  7588   0.428E-01    0.631E-01
RMM:   3    -0.253211870037E+04   -0.13588E-02   -0.17450E-02  8615   0.134E-01    0.242E-01
RMM:   4    -0.253211840015E+04    0.30022E-03   -0.23704E-03  7428   0.604E-02    0.202E-01
RMM:   5    -0.253211827829E+04    0.12186E-03   -0.73849E-04  5272   0.351E-02    0.144E-01
RMM:   6    -0.253211829690E+04   -0.18606E-04   -0.46520E-04  4731   0.324E-02
  27 F= -.25321183E+04 E0= -.25321099E+04  d E =-.628017E-01  mag=   246.0000
       N       E                     dE             d eps       ncg     rms          rms(c)
DAV:   1    -0.253209313319E+04    0.25145E-01   -0.98533E+00  6480   0.277E+00    0.113E+00
RMM:   2    -0.253214109681E+04   -0.47964E-01   -0.46011E-01  8131   0.105E+00    0.667E-01
RMM:   3    -0.253215250170E+04   -0.11405E-01   -0.97939E-02  8906   0.294E-01    0.349E-01
RMM:   4    -0.253215176378E+04    0.73792E-03   -0.10373E-02  8841   0.104E-01    0.273E-01
RMM:   5    -0.253215125284E+04    0.51094E-03   -0.33774E-03  8149   0.492E-02    0.203E-01
RMM:   6    -0.253215098699E+04    0.26585E-03   -0.25580E-03  7977   0.529E-02    0.122E-01
RMM:   7    -0.253215101582E+04   -0.28826E-04   -0.61160E-04  5285   0.303E-02
  28 F= -.25321510E+04 E0= -.25321427E+04  d E =-.327189E-01  mag=   246.0000
       N       E                     dE             d eps       ncg     rms          rms(c)
DAV:   1    -0.253206802573E+04    0.82961E-01   -0.15650E+01  6400   0.349E+00    0.142E+00
RMM:   2    -0.253214424061E+04   -0.76215E-01   -0.73438E-01  8200   0.130E+00    0.854E-01
RMM:   3    -0.253216203580E+04   -0.17795E-01   -0.15188E-01  8968   0.354E-01    0.451E-01
RMM:   4    -0.253216086879E+04    0.11670E-02   -0.16638E-02  9135   0.130E-01    0.355E-01
RMM:   5    -0.253216026597E+04    0.60281E-03   -0.56254E-03  8955   0.613E-02    0.278E-01
RMM:   6    -0.253215984449E+04    0.42149E-03   -0.39819E-03  8286   0.608E-02    0.168E-01
RMM:   7    -0.253215990571E+04   -0.61220E-04   -0.11745E-03  6392   0.378E-02    0.878E-02
RMM:   8    -0.253215988574E+04    0.19972E-04   -0.20694E-04  3902   0.308E-02
  29 F= -.25321599E+04 E0= -.25321515E+04  d E =-.415888E-01  mag=   246.0000
       N       E                     dE             d eps       ncg     rms          rms(c)
DAV:   1    -0.253214216684E+04    0.17739E-01   -0.60113E+00  6880   0.221E+00    0.101E+00
RMM:   2    -0.253216968328E+04   -0.27516E-01   -0.31878E-01  8130   0.884E-01    0.723E-01
RMM:   3    -0.253217756507E+04   -0.78818E-02   -0.68603E-02  8855   0.248E-01    0.340E-01
RMM:   4    -0.253217722341E+04    0.34166E-03   -0.80176E-03  9252   0.899E-02    0.270E-01
RMM:   5    -0.253217693265E+04    0.29075E-03   -0.26491E-03  8330   0.448E-02    0.205E-01
RMM:   6    -0.253217684896E+04    0.83697E-04   -0.18730E-03  7418   0.450E-02    0.115E-01
RMM:   7    -0.253217690669E+04   -0.57729E-04   -0.47456E-04  4779   0.312E-02
  30 F= -.25321769E+04 E0= -.25321685E+04  d E =-.170210E-01  mag=   246.0000
       N       E                     dE             d eps       ncg     rms          rms(c)
DAV:   1    -0.253202046467E+04    0.15638E+00   -0.28200E+01  6560   0.479E+00    0.217E+00
RMM:   2    -0.253214923181E+04   -0.12877E+00   -0.14903E+00  8138   0.192E+00    0.153E+00
RMM:   3    -0.253218573653E+04   -0.36505E-01   -0.31729E-01  8856   0.534E-01    0.720E-01
RMM:   4    -0.253218388403E+04    0.18525E-02   -0.36148E-02  9570   0.191E-01    0.570E-01
RMM:   5    -0.253218240657E+04    0.14775E-02   -0.13147E-02  9666   0.903E-02    0.416E-01
RMM:   6    -0.253218203370E+04    0.37286E-03   -0.82509E-03  8725   0.807E-02    0.227E-01
RMM:   7    -0.253218227069E+04   -0.23699E-03   -0.25231E-03  8313   0.455E-02    0.121E-01
RMM:   8    -0.253218213891E+04    0.13179E-03   -0.34062E-04  4209   0.312E-02    0.839E-02
RMM:   9    -0.253218212257E+04    0.16341E-04   -0.28913E-04  4051   0.272E-02
  31 F= -.25321821E+04 E0= -.25321736E+04  d E =-.222368E-01  mag=   246.0000
       N       E                     dE             d eps       ncg     rms          rms(c)
DAV:   1    -0.253216200008E+04    0.20139E-01   -0.43636E+00  7200   0.189E+00    0.865E-01
RMM:   2    -0.253218074267E+04   -0.18743E-01   -0.21819E-01  8051   0.738E-01    0.648E-01
RMM:   3    -0.253218616000E+04   -0.54173E-02   -0.47150E-02  8785   0.211E-01    0.293E-01
RMM:   4    -0.253218583891E+04    0.32109E-03   -0.50671E-03  8625   0.756E-02    0.238E-01
RMM:   5    -0.253218556358E+04    0.27533E-03   -0.13629E-03  6675   0.385E-02    0.183E-01
RMM:   6    -0.253218542716E+04    0.13641E-03   -0.13558E-03  6494   0.402E-02    0.106E-01
RMM:   7    -0.253218543027E+04   -0.31036E-05   -0.40144E-04  4500   0.316E-02
  32 F= -.25321854E+04 E0= -.25321769E+04  d E =-.255445E-01  mag=   246.0000
       N       E                     dE             d eps       ncg     rms          rms(c)
DAV:   1    -0.253218274087E+04    0.26863E-02   -0.45410E+00  6480   0.184E+00    0.736E-01
RMM:   2    -0.253220359030E+04   -0.20849E-01   -0.19908E-01  8129   0.667E-01    0.424E-01
RMM:   3    -0.253220833414E+04   -0.47438E-02   -0.40676E-02  8885   0.182E-01    0.210E-01
RMM:   4    -0.253220800608E+04    0.32806E-03   -0.43794E-03  7948   0.671E-02    0.158E-01
RMM:   5    -0.253220773945E+04    0.26663E-03   -0.13467E-03  6138   0.364E-02    0.139E-01
RMM:   6    -0.253220762886E+04    0.11058E-03   -0.94869E-04  5835   0.361E-02    0.650E-02
RMM:   7    -0.253220764681E+04   -0.17946E-04   -0.45089E-04  4562   0.341E-02
  33 F= -.25322076E+04 E0= -.25321991E+04  d E =-.222165E-01  mag=   246.0000
       N       E                     dE             d eps       ncg     rms          rms(c)
DAV:   1    -0.253200718186E+04    0.20045E+00   -0.40685E+01  6320   0.552E+00    0.226E+00
RMM:   2    -0.253219589438E+04   -0.18871E+00   -0.18094E+00  8140   0.201E+00    0.131E+00
RMM:   3    -0.253224056781E+04   -0.44673E-01   -0.38351E-01  9095   0.549E-01    0.641E-01
RMM:   4    -0.253223778908E+04    0.27787E-02   -0.43757E-02  9285   0.192E-01    0.478E-01
RMM:   5    -0.253223583343E+04    0.19556E-02   -0.15330E-02  9441   0.910E-02    0.392E-01
RMM:   6    -0.253223508873E+04    0.74470E-03   -0.82148E-03  8837   0.719E-02    0.186E-01
RMM:   7    -0.253223515263E+04   -0.63902E-04   -0.21794E-03  7395   0.492E-02    0.110E-01
RMM:   8    -0.253223513240E+04    0.20235E-04   -0.46014E-04  4556   0.310E-02
  34 F= -.25322351E+04 E0= -.25322263E+04  d E =-.497021E-01  mag=   246.0000
       N       E                     dE             d eps       ncg     rms          rms(c)
DAV:   1    -0.253222781234E+04    0.73403E-02   -0.43276E+00  6560   0.183E+00    0.628E-01
RMM:   2    -0.253224653423E+04   -0.18722E-01   -0.18765E-01  8160   0.655E-01    0.357E-01
RMM:   3    -0.253225093386E+04   -0.43996E-02   -0.39918E-02  9128   0.178E-01    0.201E-01
RMM:   4    -0.253225072232E+04    0.21154E-03   -0.50533E-03  8254   0.627E-02    0.153E-01
RMM:   5    -0.253225052423E+04    0.19809E-03   -0.15214E-03  6538   0.359E-02    0.124E-01
RMM:   6    -0.253225045465E+04    0.69585E-04   -0.10352E-03  6015   0.375E-02    0.656E-02
RMM:   7    -0.253225047984E+04   -0.25193E-04   -0.39250E-04  4462   0.318E-02
  35 F= -.25322505E+04 E0= -.25322416E+04  d E =-.153474E-01  mag=   246.0000
       N       E                     dE             d eps       ncg     rms          rms(c)
DAV:   1    -0.253206540973E+04    0.18504E+00   -0.38911E+01  6480   0.549E+00    0.188E+00
RMM:   2    -0.253223179132E+04   -0.16638E+00   -0.16614E+00  8149   0.195E+00    0.110E+00
RMM:   3    -0.253227072607E+04   -0.38935E-01   -0.35203E-01  9119   0.531E-01    0.601E-01
RMM:   4    -0.253226882859E+04    0.18975E-02   -0.44622E-02  9376   0.187E-01    0.464E-01
RMM:   5    -0.253226720343E+04    0.16252E-02   -0.14968E-02  9528   0.879E-02    0.368E-01
RMM:   6    -0.253226648744E+04    0.71598E-03   -0.85331E-03  8744   0.767E-02    0.188E-01
RMM:   7    -0.253226658256E+04   -0.95117E-04   -0.22354E-03  7653   0.475E-02    0.101E-01
RMM:   8    -0.253226654757E+04    0.34992E-04   -0.55931E-04  4829   0.304E-02
  36 F= -.25322665E+04 E0= -.25322575E+04  d E =-.314152E-01  mag=   246.0000
       N       E                     dE             d eps       ncg     rms          rms(c)
DAV:   1    -0.253224593063E+04    0.20652E-01   -0.81340E+00  6400   0.248E+00    0.652E-01
RMM:   2    -0.253227818480E+04   -0.32254E-01   -0.32503E-01  8085   0.865E-01    0.331E-01
RMM:   3    -0.253228492776E+04   -0.67430E-02   -0.63082E-02  8993   0.227E-01    0.228E-01
RMM:   4    -0.253228481348E+04    0.11429E-03   -0.82876E-03  8822   0.753E-02    0.182E-01
RMM:   5    -0.253228448559E+04    0.32789E-03   -0.29449E-03  7643   0.417E-02    0.132E-01
RMM:   6    -0.253228438195E+04    0.10364E-03   -0.18872E-03  7190   0.429E-02    0.793E-02
RMM:   7    -0.253228441174E+04   -0.29786E-04   -0.42979E-04  4492   0.303E-02
  37 F= -.25322844E+04 E0= -.25322754E+04  d E =-.178642E-01  mag=   246.0000
       N       E                     dE             d eps       ncg     rms          rms(c)
DAV:   1    -0.253198023575E+04    0.30415E+00   -0.73132E+01  6320   0.743E+00    0.194E+00
RMM:   2    -0.253226646331E+04   -0.28623E+00   -0.28872E+00  8072   0.258E+00    0.100E+00
RMM:   3    -0.253232585628E+04   -0.59393E-01   -0.55816E-01  8928   0.682E-01    0.687E-01
RMM:   4    -0.253232466621E+04    0.11901E-02   -0.72459E-02  9563   0.226E-01    0.552E-01
RMM:   5    -0.253232163917E+04    0.30270E-02   -0.26934E-02  9578   0.111E-01    0.387E-01
RMM:   6    -0.253232046319E+04    0.11760E-02   -0.15003E-02  8816   0.104E-01    0.221E-01
RMM:   7    -0.253232075364E+04   -0.29045E-03   -0.42415E-03  8659   0.514E-02    0.132E-01
RMM:   8    -0.253232063697E+04    0.11666E-03   -0.10023E-03  5727   0.345E-02    0.904E-02
RMM:   9    -0.253232063663E+04    0.34159E-06   -0.54542E-04  4823   0.314E-02
  38 F= -.25323206E+04 E0= -.25323117E+04  d E =-.540891E-01  mag=   246.0000
       N       E                     dE             d eps       ncg     rms          rms(c)
DAV:   1    -0.253226988187E+04    0.50755E-01   -0.12457E+01  6560   0.307E+00    0.798E-01
RMM:   2    -0.253231862550E+04   -0.48744E-01   -0.48887E-01  8083   0.106E+00    0.411E-01
RMM:   3    -0.253232863200E+04   -0.10006E-01   -0.94274E-02  8993   0.281E-01    0.278E-01
RMM:   4    -0.253232846452E+04    0.16747E-03   -0.12699E-02  9218   0.958E-02    0.222E-01
RMM:   5    -0.253232795798E+04    0.50655E-03   -0.46958E-03  8555   0.504E-02    0.157E-01
RMM:   6    -0.253232781279E+04    0.14518E-03   -0.23719E-03  7830   0.474E-02    0.974E-02
RMM:   7    -0.253232784662E+04   -0.33830E-04   -0.56730E-04  4965   0.285E-02
  39 F= -.25323278E+04 E0= -.25323189E+04  d E =-.612991E-01  mag=   246.0000
       N       E                     dE             d eps       ncg     rms          rms(c)
DAV:   1    -0.253209244569E+04    0.23537E+00   -0.49581E+01  6240   0.612E+00    0.161E+00
RMM:   2    -0.253228812806E+04   -0.19568E+00   -0.19767E+00  8021   0.217E+00    0.824E-01
RMM:   3    -0.253233138033E+04   -0.43252E-01   -0.40626E-01  8938   0.587E-01    0.572E-01
RMM:   4    -0.253233085988E+04    0.52045E-03   -0.52358E-02  9512   0.192E-01    0.465E-01
RMM:   5    -0.253232883916E+04    0.20207E-02   -0.18424E-02  9720   0.914E-02    0.325E-01
RMM:   6    -0.253232783376E+04    0.10054E-02   -0.10692E-02  8700   0.893E-02    0.190E-01
RMM:   7    -0.253232808804E+04   -0.25428E-03   -0.33902E-03  8324   0.465E-02    0.114E-01
RMM:   8    -0.253232798709E+04    0.10095E-03   -0.58051E-04  4923   0.330E-02    0.758E-02
RMM:   9    -0.253232797636E+04    0.10733E-04   -0.41986E-04  4484   0.288E-02
  40 F= -.25323280E+04 E0= -.25323190E+04  d E =-.614288E-01  mag=   246.0000
       N       E                     dE             d eps       ncg     rms          rms(c)
DAV:   1    -0.253227158144E+04    0.56406E-01   -0.12955E+01  6560   0.313E+00    0.808E-01
RMM:   2    -0.253232131472E+04   -0.49733E-01   -0.50250E-01  8072   0.108E+00    0.428E-01
RMM:   3    -0.253233137142E+04   -0.10057E-01   -0.94855E-02  8848   0.285E-01    0.288E-01
RMM:   4    -0.253233112259E+04    0.24883E-03   -0.11822E-02  8829   0.976E-02    0.230E-01
RMM:   5    -0.253233057406E+04    0.54853E-03   -0.41347E-03  7991   0.479E-02    0.170E-01
RMM:   6    -0.253233030665E+04    0.26741E-03   -0.28123E-03  7772   0.502E-02    0.909E-02
RMM:   7    -0.253233033046E+04   -0.23813E-04   -0.54205E-04  4846   0.293E-02
  41 F= -.25323303E+04 E0= -.25323213E+04  d E =-.637829E-01  mag=   246.0000
       N       E                     dE             d eps       ncg     rms          rms(c)
DAV:   1    -0.253227236028E+04    0.57946E-01   -0.19865E+01  6320   0.389E+00    0.119E+00
RMM:   2    -0.253235098791E+04   -0.78628E-01   -0.81983E-01  8089   0.138E+00    0.711E-01
RMM:   3    -0.253236701131E+04   -0.16023E-01   -0.15345E-01  8936   0.368E-01    0.397E-01
RMM:   4    -0.253236616164E+04    0.84968E-03   -0.18997E-02  9300   0.121E-01    0.310E-01
RMM:   5    -0.253236502867E+04    0.11330E-02   -0.86650E-03  8633   0.694E-02    0.212E-01
RMM:   6    -0.253236494807E+04    0.80602E-04   -0.30608E-03  8296   0.506E-02    0.126E-01
RMM:   7    -0.253236495893E+04   -0.10862E-04   -0.61667E-04  5032   0.266E-02
  42 F= -.25323650E+04 E0= -.25323561E+04  d E =-.346285E-01  mag=   246.0000
       N       E                     dE             d eps       ncg     rms          rms(c)
DAV:   1    -0.253154423047E+04    0.82072E+00   -0.17830E+02  6400   0.117E+01    0.362E+00
RMM:   2    -0.253225807550E+04   -0.71385E+00   -0.74478E+00  8068   0.416E+00    0.224E+00
RMM:   3    -0.253241226079E+04   -0.15419E+00   -0.14732E+00  8977   0.113E+00    0.127E+00
RMM:   4    -0.253240456578E+04    0.76950E-02   -0.18350E-01  9680   0.369E-01    0.991E-01
RMM:   5    -0.253239436901E+04    0.10197E-01   -0.85661E-02  9113   0.213E-01    0.627E-01
RMM:   6    -0.253239439127E+04   -0.22263E-04   -0.31507E-02  9578   0.147E-01    0.384E-01
RMM:   7    -0.253239460130E+04   -0.21003E-03   -0.75046E-03  9469   0.609E-02    0.214E-01
RMM:   8    -0.253239430868E+04    0.29262E-03   -0.36860E-03  8319   0.471E-02    0.122E-01
RMM:   9    -0.253239431844E+04   -0.97643E-05   -0.12318E-03  6209   0.341E-02    0.837E-02
RMM:  10    -0.253239432300E+04   -0.45580E-05   -0.29581E-04  4076   0.310E-02
  43 F= -.25323943E+04 E0= -.25323857E+04  d E =-.639925E-01  mag=   246.0000
       N       E                     dE             d eps       ncg     rms          rms(c)
DAV:   1    -0.253232334115E+04    0.70977E-01   -0.16082E+01  6400   0.350E+00    0.105E+00
RMM:   2    -0.253238632651E+04   -0.62985E-01   -0.66470E-01  8138   0.123E+00    0.602E-01
RMM:   3    -0.253239874626E+04   -0.12420E-01   -0.12041E-01  8934   0.323E-01    0.349E-01
RMM:   4    -0.253239806237E+04    0.68389E-03   -0.14822E-02  8968   0.112E-01    0.273E-01
RMM:   5    -0.253239723659E+04    0.82579E-03   -0.67727E-03  8419   0.622E-02    0.181E-01
RMM:   6    -0.253239715473E+04    0.81851E-04   -0.22180E-03  7673   0.472E-02    0.123E-01
RMM:   7    -0.253239717509E+04   -0.20354E-04   -0.53802E-04  4932   0.280E-02
  44 F= -.25323972E+04 E0= -.25323885E+04  d E =-.668446E-01  mag=   246.0000
       N       E                     dE             d eps       ncg     rms          rms(c)
DAV:   1    -0.253228194305E+04    0.11521E+00   -0.33842E+01  6480   0.510E+00    0.134E+00
RMM:   2    -0.253241178064E+04   -0.12984E+00   -0.13272E+00  7965   0.176E+00    0.716E-01
RMM:   3    -0.253244063235E+04   -0.28852E-01   -0.27363E-01  8878   0.473E-01    0.498E-01
RMM:   4    -0.253243985459E+04    0.77776E-03   -0.33624E-02  9222   0.158E-01    0.393E-01
RMM:   5    -0.253243816780E+04    0.16868E-02   -0.14693E-02  9091   0.859E-02    0.259E-01
RMM:   6    -0.253243793414E+04    0.23366E-03   -0.61932E-03  8899   0.675E-02    0.164E-01
RMM:   7    -0.253243793510E+04   -0.95557E-06   -0.11633E-03  6117   0.311E-02    0.861E-02
RMM:   8    -0.253243786809E+04    0.67006E-04   -0.56755E-04  4773   0.337E-02
  45 F= -.25324379E+04 E0= -.25324292E+04  d E =-.406930E-01  mag=   246.0000
       N       E                     dE             d eps       ncg     rms          rms(c)
DAV:   1    -0.253236101955E+04    0.76916E-01   -0.19654E+01  6480   0.389E+00    0.103E+00
RMM:   2    -0.253243766234E+04   -0.76643E-01   -0.78328E-01  7978   0.135E+00    0.553E-01
RMM:   3    -0.253245495028E+04   -0.17288E-01   -0.16394E-01  9000   0.362E-01    0.384E-01
RMM:   4    -0.253245446691E+04    0.48337E-03   -0.20956E-02  9365   0.120E-01    0.301E-01
RMM:   5    -0.253245356546E+04    0.90145E-03   -0.93129E-03  8967   0.678E-02    0.202E-01
RMM:   6    -0.253245347618E+04    0.89281E-04   -0.36790E-03  8434   0.542E-02    0.127E-01
RMM:   7    -0.253245347568E+04    0.49867E-06   -0.70986E-04  5226   0.279E-02
  46 F= -.25324535E+04 E0= -.25324449E+04  d E =-.563006E-01  mag=   246.0000
       N       E                     dE             d eps       ncg     rms          rms(c)
DAV:   1    -0.253207360546E+04    0.37987E+00   -0.78524E+01  6480   0.777E+00    0.206E+00
RMM:   2    -0.253237949030E+04   -0.30588E+00   -0.31354E+00  7943   0.271E+00    0.112E+00
RMM:   3    -0.253244907755E+04   -0.69587E-01   -0.65836E-01  8931   0.729E-01    0.781E-01
RMM:   4    -0.253244728487E+04    0.17927E-02   -0.83390E-02  9508   0.244E-01    0.626E-01
RMM:   5    -0.253244394035E+04    0.33445E-02   -0.34395E-02  9494   0.124E-01    0.415E-01
RMM:   6    -0.253125231964E+04    0.11916E+01   -0.42818E+00  8983   0.123E+00    0.243E-01
RMM:   7    -0.253238943712E+04   -0.11371E+01   -0.10949E+00  8293   0.481E-01    0.155E-01
RMM:   8    -0.253243002582E+04   -0.40589E-01   -0.21628E-01  6459   0.222E-01    0.913E-02
RMM:   9    -0.253243915920E+04   -0.91334E-02   -0.55115E-02  5562   0.114E-01    0.525E-02
RMM:  10    -0.253244173073E+04   -0.25715E-02   -0.17778E-02  4020   0.686E-02    0.363E-02
RMM:  11    -0.253244283421E+04   -0.11035E-02   -0.92323E-03  3976   0.406E-02    0.280E-02
RMM:  12    -0.253244316516E+04   -0.33095E-03   -0.28621E-03  3926   0.290E-02    0.154E-02
RMM:  13    -0.253244320642E+04   -0.41258E-04   -0.35173E-04  3856   0.203E-02
  47 F= -.25324432E+04 E0= -.25324345E+04  d E =-.460313E-01  mag=   246.0000
       N       E                     dE             d eps       ncg     rms          rms(c)
DAV:   1    -0.253238916542E+04    0.54000E-01   -0.16491E+01  6640   0.334E+00    0.207E+00
RMM:   2    -0.253247636003E+04   -0.87195E-01   -0.93549E-01  8138   0.127E+00    0.969E-01
RMM:   3    -0.253249217310E+04   -0.15813E-01   -0.19155E-01  9101   0.355E-01    0.643E-01
RMM:   4    -0.253248903050E+04    0.31426E-02   -0.22358E-02  8503   0.143E-01    0.399E-01
RMM:   5    -0.253248832256E+04    0.70794E-03   -0.13683E-02  8411   0.890E-02    0.260E-01
RMM:   6    -0.253248832550E+04   -0.29438E-05   -0.20432E-03  6625   0.624E-02    0.169E-01
RMM:   7    -0.253248827347E+04    0.52028E-04   -0.84905E-04  5216   0.332E-02
  48 F= -.25324883E+04 E0= -.25324797E+04  d E =-.450671E-01  mag=   246.0000
       N       E                     dE             d eps       ncg     rms          rms(c)
DAV:   1    -0.253248952691E+04   -0.12014E-02   -0.14349E+00  7040   0.988E-01    0.605E-01
RMM:   2    -0.253249657011E+04   -0.70432E-02   -0.77788E-02  8123   0.367E-01    0.267E-01
RMM:   3    -0.253249777644E+04   -0.12063E-02   -0.15352E-02  8547   0.103E-01    0.176E-01
RMM:   4    -0.253249754033E+04    0.23610E-03   -0.15332E-03  5758   0.464E-02    0.113E-01
RMM:   5    -0.253249746339E+04    0.76942E-04   -0.10740E-03  5320   0.327E-02    0.805E-02
RMM:   6    -0.253249747121E+04   -0.78147E-05   -0.23860E-04  3890   0.296E-02
  49 F= -.25324975E+04 E0= -.25324889E+04  d E =-.542648E-01  mag=   246.0000
       N       E                     dE             d eps       ncg     rms          rms(c)
DAV:   1    -0.253248570675E+04    0.11757E-01   -0.64241E+00  6960   0.229E+00    0.101E+00
RMM:   2    -0.253251570602E+04   -0.29999E-01   -0.29182E-01  8114   0.820E-01    0.489E-01
RMM:   3    -0.253252230260E+04   -0.65966E-02   -0.61169E-02  8939   0.228E-01    0.279E-01
RMM:   4    -0.253252179021E+04    0.51240E-03   -0.67819E-03  8437   0.854E-02    0.204E-01
RMM:   5    -0.253252145113E+04    0.33907E-03   -0.23073E-03  7197   0.444E-02    0.161E-01
RMM:   6    -0.253252136955E+04    0.81581E-04   -0.13179E-03  6476   0.406E-02    0.927E-02
RMM:   7    -0.253252139948E+04   -0.29927E-04   -0.41062E-04  4438   0.309E-02
  50 F= -.25325214E+04 E0= -.25325128E+04  d E =-.239283E-01  mag=   246.0000
       N       E                     dE             d eps       ncg     rms          rms(c)
DAV:   1    -0.253249801369E+04    0.23356E-01   -0.46740E+00  6960   0.196E+00    0.884E-01
RMM:   2    -0.253252007399E+04   -0.22060E-01   -0.21626E-01  8126   0.704E-01    0.429E-01
RMM:   3    -0.253252526788E+04   -0.51939E-02   -0.47912E-02  9085   0.197E-01    0.244E-01
RMM:   4    -0.253252492283E+04    0.34505E-03   -0.56087E-03  8570   0.736E-02    0.180E-01
RMM:   5    -0.253252468226E+04    0.24057E-03   -0.15573E-03  6672   0.391E-02    0.150E-01
RMM:   6    -0.253252462515E+04    0.57113E-04   -0.10197E-03  6059   0.370E-02    0.793E-02
RMM:   7    -0.253252465403E+04   -0.28886E-04   -0.38897E-04  4388   0.319E-02
  51 F= -.25325247E+04 E0= -.25325160E+04  d E =-.271828E-01  mag=   246.0000
       N       E                     dE             d eps       ncg     rms          rms(c)
DAV:   1    -0.253252066944E+04    0.39557E-02   -0.36931E+00  6800   0.175E+00    0.496E-01
RMM:   2    -0.253253581366E+04   -0.15144E-01   -0.15483E-01  8104   0.620E-01    0.306E-01
RMM:   3    -0.253253916762E+04   -0.33540E-02   -0.31464E-02  9101   0.168E-01    0.184E-01
RMM:   4    -0.253253902986E+04    0.13775E-03   -0.39554E-03  8042   0.605E-02    0.147E-01
RMM:   5    -0.253253888422E+04    0.14565E-03   -0.11868E-03  6346   0.333E-02    0.114E-01
RMM:   6    -0.253253880496E+04    0.79252E-04   -0.97342E-04  6054   0.359E-02
  52 F= -.25325388E+04 E0= -.25325302E+04  d E =-.141509E-01  mag=   246.0000
       N       E                     dE             d eps       ncg     rms          rms(c)
DAV:   1    -0.253239270513E+04    0.14618E+00   -0.33255E+01  6800   0.524E+00    0.148E+00
RMM:   2    -0.253252851064E+04   -0.13581E+00   -0.13855E+00  8093   0.186E+00    0.935E-01
RMM:   3    -0.253255801941E+04   -0.29509E-01   -0.27673E-01  9100   0.502E-01    0.563E-01
RMM:   4    -0.253255688000E+04    0.11394E-02   -0.35574E-02  9416   0.175E-01    0.445E-01
RMM:   5    -0.253255556556E+04    0.13144E-02   -0.12020E-02  9618   0.825E-02    0.348E-01
RMM:   6    -0.253255490253E+04    0.66303E-03   -0.81519E-03  8843   0.787E-02    0.200E-01
RMM:   7    -0.253255509689E+04   -0.19436E-03   -0.25396E-03  7968   0.436E-02    0.940E-02
RMM:   8    -0.253255499871E+04    0.98172E-04   -0.37265E-04  4390   0.305E-02
  53 F= -.25325550E+04 E0= -.25325464E+04  d E =-.303447E-01  mag=   246.0000
       N       E                     dE             d eps       ncg     rms          rms(c)
DAV:   1    -0.253254439242E+04    0.10704E-01   -0.70262E+00  6240   0.234E+00    0.785E-01
RMM:   2    -0.253257432843E+04   -0.29936E-01   -0.30239E-01  8213   0.834E-01    0.411E-01
RMM:   3    -0.253258003376E+04   -0.57053E-02   -0.52493E-02  9102   0.213E-01    0.213E-01
RMM:   4    -0.253257976340E+04    0.27035E-03   -0.68299E-03  8873   0.724E-02    0.166E-01
RMM:   5    -0.253257952649E+04    0.23692E-03   -0.26573E-03  7563   0.405E-02    0.126E-01
RMM:   6    -0.253257945563E+04    0.70857E-04   -0.14087E-03  6776   0.382E-02    0.742E-02
RMM:   7    -0.253257949157E+04   -0.35939E-04   -0.44586E-04  4564   0.324E-02
  54 F= -.25325795E+04 E0= -.25325710E+04  d E =-.244929E-01  mag=   246.0000
       N       E                     dE             d eps       ncg     rms          rms(c)
DAV:   1    -0.253230430524E+04    0.27515E+00   -0.63083E+01  6240   0.702E+00    0.231E+00
RMM:   2    -0.253257074441E+04   -0.26644E+00   -0.26883E+00  8202   0.249E+00    0.122E+00
RMM:   3    -0.253262098397E+04   -0.50240E-01   -0.46193E-01  9049   0.630E-01    0.636E-01
RMM:   4    -0.253261848279E+04    0.25012E-02   -0.59885E-02  9582   0.215E-01    0.498E-01
RMM:   5    -0.253261645656E+04    0.20262E-02   -0.24894E-02  9662   0.106E-01    0.361E-01
RMM:   6    -0.253261571186E+04    0.74470E-03   -0.12498E-02  9224   0.897E-02    0.205E-01
RMM:   7    -0.253261600004E+04   -0.28818E-03   -0.40169E-03  8699   0.471E-02    0.116E-01
RMM:   8    -0.253261596527E+04    0.34772E-04   -0.74882E-04  5312   0.311E-02
  55 F= -.25326160E+04 E0= -.25326078E+04  d E =-.609666E-01  mag=   246.0000
       N       E                     dE             d eps       ncg     rms          rms(c)
DAV:   1    -0.253260335079E+04    0.12649E-01   -0.87792E+00  6640   0.262E+00    0.722E-01
RMM:   2    -0.253263812502E+04   -0.34774E-01   -0.34932E-01  8023   0.931E-01    0.390E-01
RMM:   3    -0.253264605385E+04   -0.79288E-02   -0.73978E-02  9037   0.253E-01    0.244E-01
RMM:   4    -0.253264595838E+04    0.95475E-04   -0.97557E-03  9100   0.813E-02    0.194E-01
RMM:   5    -0.253264566755E+04    0.29083E-03   -0.37257E-03  8038   0.450E-02    0.141E-01
RMM:   6    -0.253264560732E+04    0.60230E-04   -0.19499E-03  7558   0.438E-02    0.850E-02
RMM:   7    -0.253264565549E+04   -0.48171E-04   -0.61928E-04  5117   0.296E-02
  56 F= -.25326457E+04 E0= -.25326376E+04  d E =-.296902E-01  mag=   246.0000
       N       E                     dE             d eps       ncg     rms          rms(c)
DAV:   1    -0.253232326453E+04    0.32234E+00   -0.78816E+01  6320   0.786E+00    0.214E+00
RMM:   2    -0.253263386968E+04   -0.31061E+00   -0.31272E+00  8035   0.278E+00    0.115E+00
RMM:   3    -0.253270223814E+04   -0.68368E-01   -0.63772E-01  8980   0.743E-01    0.732E-01
RMM:   4    -0.253270095281E+04    0.12853E-02   -0.81298E-02  9607   0.237E-01    0.585E-01
RMM:   5    -0.253269826879E+04    0.26840E-02   -0.30663E-02  9595   0.118E-01    0.416E-01
RMM:   6    -0.253269730553E+04    0.96326E-03   -0.16840E-02  9122   0.108E-01    0.234E-01
RMM:   7    -0.253269766720E+04   -0.36167E-03   -0.49485E-03  9006   0.533E-02    0.134E-01
RMM:   8    -0.253269756287E+04    0.10433E-03   -0.10635E-03  5926   0.325E-02    0.860E-02
RMM:   9    -0.253269755253E+04    0.10338E-04   -0.63798E-04  5084   0.309E-02
  57 F= -.25326976E+04 E0= -.25326896E+04  d E =-.815873E-01  mag=   246.0000
       N       E                     dE             d eps       ncg     rms          rms(c)
DAV:   1    -0.253268143795E+04    0.16125E-01   -0.40370E+00  6560   0.178E+00    0.492E-01
RMM:   2    -0.253269782904E+04   -0.16391E-01   -0.16396E-01  8020   0.639E-01    0.262E-01
RMM:   3    -0.253270156813E+04   -0.37391E-02   -0.34786E-02  8940   0.174E-01    0.166E-01
RMM:   4    -0.253270153001E+04    0.38119E-04   -0.46176E-03  8176   0.598E-02    0.133E-01
RMM:   5    -0.253270139364E+04    0.13637E-03   -0.17594E-03  6793   0.361E-02    0.922E-02
RMM:   6    -0.253270137747E+04    0.16171E-04   -0.10245E-03  6156   0.351E-02    0.590E-02
RMM:   7    -0.253270141015E+04   -0.32685E-04   -0.33642E-04  4332   0.316E-02
  58 F= -.25327014E+04 E0= -.25326935E+04  d E =-.854449E-01  mag=   246.0000
       N       E                     dE             d eps       ncg     rms          rms(c)
DAV:   1    -0.253262247575E+04    0.78902E-01   -0.16038E+01  6240   0.355E+00    0.977E-01
RMM:   2    -0.253268644605E+04   -0.63970E-01   -0.64452E-01  8016   0.127E+00    0.526E-01
RMM:   3    -0.253270094048E+04   -0.14494E-01   -0.13485E-01  9025   0.343E-01    0.331E-01
RMM:   4    -0.253270075075E+04    0.18973E-03   -0.17503E-02  9376   0.110E-01    0.267E-01
RMM:   5    -0.253270021043E+04    0.54032E-03   -0.65400E-03  8862   0.566E-02    0.193E-01
RMM:   6    -0.253270003792E+04    0.17251E-03   -0.36843E-03  8558   0.544E-02    0.105E-01
RMM:   7    -0.253270009913E+04   -0.61213E-04   -0.87856E-04  5715   0.314E-02
  59 F= -.25327001E+04 E0= -.25326922E+04  d E =-.841339E-01  mag=   246.0000
       N       E                     dE             d eps       ncg     rms          rms(c)
DAV:   1    -0.253268611591E+04    0.13922E-01   -0.59548E+00  6400   0.216E+00    0.583E-01
RMM:   2    -0.253270925075E+04   -0.23135E-01   -0.23587E-01  8078   0.747E-01    0.343E-01
RMM:   3    -0.253271415907E+04   -0.49083E-02   -0.46280E-02  8906   0.197E-01    0.185E-01
RMM:   4    -0.253271405161E+04    0.10746E-03   -0.61902E-03  8534   0.677E-02    0.147E-01
RMM:   5    -0.253271389616E+04    0.15544E-03   -0.23549E-03  7039   0.393E-02    0.102E-01
RMM:   6    -0.253271384907E+04    0.47092E-04   -0.14017E-03  6859   0.381E-02    0.610E-02
RMM:   7    -0.253271387255E+04   -0.23479E-04   -0.36973E-04  4461   0.315E-02
  60 F= -.25327139E+04 E0= -.25327060E+04  d E =-.137734E-01  mag=   246.0000
       N       E                     dE             d eps       ncg     rms          rms(c)
DAV:   1    -0.253249609846E+04    0.21775E+00   -0.53632E+01  6240   0.647E+00    0.172E+00
RMM:   2    -0.253270218220E+04   -0.20608E+00   -0.20870E+00  8033   0.226E+00    0.103E+00
RMM:   3    -0.253274669727E+04   -0.44515E-01   -0.41945E-01  8906   0.602E-01    0.558E-01
RMM:   4    -0.253274570044E+04    0.99683E-03   -0.53872E-02  9544   0.191E-01    0.455E-01
RMM:   5    -0.253274416860E+04    0.15318E-02   -0.20894E-02  9623   0.953E-02    0.323E-01
RMM:   6    -0.253274345220E+04    0.71640E-03   -0.10737E-02  9044   0.840E-02    0.178E-01
RMM:   7    -0.253274363346E+04   -0.18126E-03   -0.31515E-03  7921   0.448E-02    0.983E-02
RMM:   8    -0.253274359770E+04    0.35760E-04   -0.69134E-04  5170   0.325E-02
  61 F= -.25327436E+04 E0= -.25327358E+04  d E =-.434986E-01  mag=   246.0000
       N       E                     dE             d eps       ncg     rms          rms(c)
DAV:   1    -0.253174471212E+04    0.99892E+00   -0.21458E+02  6160   0.129E+01    0.345E+00
RMM:   2    -0.253258333376E+04   -0.83862E+00   -0.84794E+00  8024   0.456E+00    0.206E+00
RMM:   3    -0.253276467867E+04   -0.18134E+00   -0.17032E+00  8893   0.122E+00    0.116E+00
RMM:   4    -0.253276031097E+04    0.43677E-02   -0.21705E-01  9715   0.380E-01    0.958E-01
RMM:   5    -0.253275304395E+04    0.72670E-02   -0.84114E-02  9658   0.190E-01    0.665E-01
RMM:   6    -0.253275020059E+04    0.28434E-02   -0.43881E-02  9109   0.170E-01    0.375E-01
RMM:   7    -0.253275107771E+04   -0.87712E-03   -0.13599E-02  9845   0.860E-02    0.206E-01
RMM:   8    -0.253275086199E+04    0.21572E-03   -0.34615E-03  8220   0.467E-02    0.128E-01
RMM:   9    -0.253275091551E+04   -0.53523E-04   -0.19449E-03  7243   0.372E-02    0.902E-02
RMM:  10    -0.253275094384E+04   -0.28325E-04   -0.51013E-04  4687   0.290E-02
  62 F= -.25327509E+04 E0= -.25327432E+04  d E =-.508447E-01  mag=   246.0000
       N       E                     dE             d eps       ncg     rms          rms(c)
DAV:   1    -0.253248740396E+04    0.26351E+00   -0.59298E+01  6240   0.680E+00    0.181E+00
RMM:   2    -0.253271290107E+04   -0.22550E+00   -0.22953E+00  8027   0.237E+00    0.115E+00
RMM:   3    -0.253275966184E+04   -0.46761E-01   -0.44312E-01  8835   0.624E-01    0.587E-01
RMM:   4    -0.253275843778E+04    0.12241E-02   -0.56759E-02  9416   0.204E-01    0.462E-01
RMM:   5    -0.253275653950E+04    0.18983E-02   -0.20832E-02  9423   0.970E-02    0.339E-01
RMM:   6    -0.253275561632E+04    0.92318E-03   -0.10185E-02  8938   0.829E-02    0.182E-01
RMM:   7    -0.253275581887E+04   -0.20256E-03   -0.32967E-03  8053   0.467E-02    0.103E-01
RMM:   8    -0.253275578325E+04    0.35618E-04   -0.55741E-04  4923   0.322E-02
  63 F= -.25327558E+04 E0= -.25327480E+04  d E =-.556841E-01  mag=   246.0000
       N       E                     dE             d eps       ncg     rms          rms(c)
DAV:   1    -0.253276942070E+04   -0.13602E-01   -0.48158E+00  6640   0.195E+00    0.700E-01
RMM:   2    -0.253278885579E+04   -0.19435E-01   -0.20178E-01  8104   0.700E-01    0.416E-01
RMM:   3    -0.253279291369E+04   -0.40579E-02   -0.36890E-02  8768   0.187E-01    0.212E-01
RMM:   4    -0.253279258007E+04    0.33362E-03   -0.39911E-03  7840   0.675E-02    0.173E-01
RMM:   5    -0.253279233736E+04    0.24272E-03   -0.16834E-03  6838   0.389E-02    0.112E-01
RMM:   6    -0.253279226961E+04    0.67744E-04   -0.11792E-03  6254   0.360E-02    0.597E-02
RMM:   7    -0.253279227873E+04   -0.91163E-05   -0.21757E-04  3927   0.312E-02
  64 F= -.25327923E+04 E0= -.25327845E+04  d E =-.364955E-01  mag=   246.0000
       N       E                     dE             d eps       ncg     rms          rms(c)
DAV:   1    -0.253265015394E+04    0.14212E+00   -0.43291E+01  6320   0.584E+00    0.212E+00
RMM:   2    -0.253282914961E+04   -0.17900E+00   -0.18605E+00  8130   0.211E+00    0.129E+00
RMM:   3    -0.253286804909E+04   -0.38899E-01   -0.35190E-01  9014   0.565E-01    0.654E-01
RMM:   4    -0.253286534068E+04    0.27084E-02   -0.41863E-02  9602   0.192E-01    0.527E-01
RMM:   5    -0.253286352359E+04    0.18171E-02   -0.18521E-02  9424   0.981E-02    0.358E-01
RMM:   6    -0.253286319389E+04    0.32970E-03   -0.91944E-03  8999   0.775E-02    0.174E-01
RMM:   7    -0.253286328603E+04   -0.92139E-04   -0.21359E-03  7779   0.393E-02    0.100E-01
RMM:   8    -0.253286320725E+04    0.78778E-04   -0.52253E-04  5012   0.278E-02
  65 F= -.25328632E+04 E0= -.25328554E+04  d E =-.107424E+00  mag=   246.0000
       N       E                     dE             d eps       ncg     rms          rms(c)
DAV:   1    -0.253197733583E+04    0.88595E+00   -0.17335E+02  6480   0.117E+01    0.425E+00
RMM:   2    -0.253269296984E+04   -0.71563E+00   -0.73990E+00  8040   0.426E+00    0.264E+00
RMM:   3    -0.253285741659E+04   -0.16445E+00   -0.14933E+00  8946   0.118E+00    0.136E+00
RMM:   4    -0.253284676896E+04    0.10648E-01   -0.17204E-01  9697   0.385E-01    0.111E+00
RMM:   5    -0.253283919654E+04    0.75724E-02   -0.73635E-02  9601   0.191E-01    0.756E-01
RMM:   6    -0.253283729608E+04    0.19005E-02   -0.38290E-02  9025   0.159E-01    0.371E-01
RMM:   7    -0.253283796716E+04   -0.67108E-03   -0.10665E-02  9844   0.812E-02    0.215E-01
RMM:   8    -0.253283765322E+04    0.31394E-03   -0.28515E-03  7946   0.395E-02    0.121E-01
RMM:   9    -0.253283760456E+04    0.48660E-04   -0.18433E-03  7385   0.374E-02    0.797E-02
RMM:  10    -0.253283761528E+04   -0.10714E-04   -0.42792E-04  4591   0.291E-02
  66 F= -.25328376E+04 E0= -.25328296E+04  d E =-.818320E-01  mag=   246.0000
       N       E                     dE             d eps       ncg     rms          rms(c)
DAV:   1    -0.253251633146E+04    0.32127E+00   -0.75850E+01  6240   0.771E+00    0.278E+00
RMM:   2    -0.253282573429E+04   -0.30940E+00   -0.32646E+00  8219   0.276E+00    0.166E+00
RMM:   3    -0.253288727346E+04   -0.61539E-01   -0.55882E-01  8990   0.709E-01    0.798E-01
RMM:   4    -0.253288243829E+04    0.48352E-02   -0.67606E-02  9293   0.256E-01    0.652E-01
RMM:   5    -0.253287979660E+04    0.26417E-02   -0.28823E-02  9326   0.122E-01    0.433E-01
RMM:   6    -0.253287887879E+04    0.91781E-03   -0.14997E-02  8807   0.103E-01    0.223E-01
RMM:   7    -0.253287924073E+04   -0.36195E-03   -0.44675E-03  8949   0.511E-02    0.144E-01
RMM:   8    -0.253287912935E+04    0.11139E-03   -0.89209E-04  5736   0.302E-02    0.784E-02
RMM:   9    -0.253287912674E+04    0.26032E-05   -0.39143E-04  4412   0.265E-02
  67 F= -.25328791E+04 E0= -.25328712E+04  d E =-.123343E+00  mag=   246.0000
       N       E                     dE             d eps       ncg     rms          rms(c)
DAV:   1    -0.253287871278E+04    0.41656E-03   -0.92002E+00  6800   0.268E+00    0.760E-01
RMM:   2    -0.253291319715E+04   -0.34484E-01   -0.33773E-01  7848   0.925E-01    0.391E-01
RMM:   3    -0.253292136607E+04   -0.81689E-02   -0.74682E-02  8642   0.258E-01    0.245E-01
RMM:   4    -0.253292127137E+04    0.94704E-04   -0.90017E-03  8230   0.838E-02    0.193E-01
RMM:   5    -0.253292097439E+04    0.29698E-03   -0.30803E-03  7237   0.424E-02    0.130E-01
RMM:   6    -0.253292080456E+04    0.16983E-03   -0.20660E-03  7494   0.458E-02    0.979E-02
RMM:   7    -0.253292083851E+04   -0.33945E-04   -0.49533E-04  4747   0.291E-02
  68 F= -.25329208E+04 E0= -.25329128E+04  d E =-.417118E-01  mag=   246.0000
       N       E                     dE             d eps       ncg     rms          rms(c)
DAV:   1    -0.253261800002E+04    0.30280E+00   -0.83043E+01  6560   0.806E+00    0.235E+00
RMM:   2    -0.253293202224E+04   -0.31402E+00   -0.30791E+00  7889   0.278E+00    0.122E+00
RMM:   3    -0.253300734289E+04   -0.75321E-01   -0.69265E-01  8830   0.775E-01    0.740E-01
RMM:   4    -0.253300614768E+04    0.11952E-02   -0.86631E-02  9390   0.248E-01    0.584E-01
RMM:   5    -0.253300401152E+04    0.21362E-02   -0.32307E-02  9581   0.116E-01    0.398E-01
RMM:   6    -0.253300270737E+04    0.13041E-02   -0.16500E-02  9025   0.111E-01    0.294E-01
RMM:   7    -0.253300312283E+04   -0.41546E-03   -0.56891E-03  9082   0.538E-02    0.138E-01
RMM:   8    -0.253300301630E+04    0.10653E-03   -0.12392E-03  6195   0.365E-02    0.921E-02
RMM:   9    -0.253300303101E+04   -0.14713E-04   -0.83920E-04  5456   0.303E-02
  69 F= -.25330030E+04 E0= -.25329947E+04  d E =-.123904E+00  mag=   246.0000
       N       E                     dE             d eps       ncg     rms          rms(c)
DAV:   1    -0.253140313561E+04    0.15999E+01   -0.33249E+02  6560   0.161E+01    0.495E+00
RMM:   2    -0.253267898158E+04   -0.12758E+01   -0.12521E+01  7917   0.559E+00    0.263E+00
RMM:   3    -0.253297571819E+04   -0.29674E+00   -0.27372E+00  8828   0.155E+00    0.154E+00
RMM:   4    -0.253296908221E+04    0.66360E-02   -0.34463E-01  9438   0.509E-01    0.121E+00
RMM:   5    -0.253296091018E+04    0.81720E-02   -0.12863E-01  9685   0.229E-01    0.821E-01
RMM:   6    -0.253295495643E+04    0.59537E-02   -0.64195E-02  9027   0.223E-01    0.606E-01
RMM:   7    -0.253295664987E+04   -0.16934E-02   -0.23610E-02  9845   0.108E-01    0.297E-01
RMM:   8    -0.253295632060E+04    0.32927E-03   -0.53766E-03  8577   0.625E-02    0.182E-01
RMM:   9    -0.253295645350E+04   -0.13290E-03   -0.40024E-03  8483   0.448E-02    0.127E-01
RMM:  10    -0.253295651320E+04   -0.59705E-04   -0.87700E-04  5629   0.353E-02
  70 F= -.25329565E+04 E0= -.25329472E+04  d E =-.773865E-01  mag=   246.0000
       N       E                     dE             d eps       ncg     rms          rms(c)
DAV:   1    -0.253220886861E+04    0.74758E+00   -0.17486E+02  6560   0.117E+01    0.352E+00
RMM:   2    -0.253287250066E+04   -0.66363E+00   -0.65251E+00  7856   0.405E+00    0.188E+00
RMM:   3    -0.253303082093E+04   -0.15832E+00   -0.14610E+00  8725   0.114E+00    0.111E+00
RMM:   4    -0.253302706839E+04    0.37525E-02   -0.17881E-01  9312   0.370E-01    0.850E-01
RMM:   5    -0.253302193561E+04    0.51328E-02   -0.66376E-02  9530   0.172E-01    0.598E-01
RMM:   6    -0.253301902551E+04    0.29101E-02   -0.32668E-02  8983   0.157E-01    0.419E-01
RMM:   7    -0.253301978682E+04   -0.76131E-03   -0.11014E-02  9612   0.744E-02    0.191E-01
RMM:   8    -0.253301955023E+04    0.23660E-03   -0.26142E-03  7495   0.461E-02    0.131E-01
RMM:   9    -0.253301959358E+04   -0.43350E-04   -0.16474E-03  6835   0.358E-02    0.869E-02
RMM:  10    -0.253301962405E+04   -0.30471E-04   -0.45200E-04  4642   0.305E-02
  71 F= -.25330196E+04 E0= -.25330110E+04  d E =-.140497E+00  mag=   246.0000
       N       E                     dE             d eps       ncg     rms          rms(c)
DAV:   1    -0.253295885429E+04    0.60739E-01   -0.30214E+01  6480   0.486E+00    0.125E+00
RMM:   2    -0.253306417447E+04   -0.10532E+00   -0.10734E+00  7734   0.167E+00    0.642E-01
RMM:   3    -0.253309043756E+04   -0.26263E-01   -0.25141E-01  8685   0.479E-01    0.411E-01
RMM:   4    -0.253309048785E+04   -0.50297E-04   -0.31946E-02  9189   0.143E-01    0.318E-01
RMM:   5    -0.253308976751E+04    0.72034E-03   -0.10645E-02  8943   0.665E-02    0.221E-01
RMM:   6    -0.253308931621E+04    0.45131E-03   -0.56110E-03  8799   0.660E-02    0.150E-01
RMM:   7    -0.253308942439E+04   -0.10818E-03   -0.16582E-03  6751   0.336E-02    0.745E-02
RMM:   8    -0.253308941301E+04    0.11376E-04   -0.32992E-04  4358   0.314E-02
  72 F= -.25330894E+04 E0= -.25330808E+04  d E =-.697890E-01  mag=   246.0000
       N       E                     dE             d eps       ncg     rms          rms(c)
DAV:   1    -0.253203637461E+04    0.10530E+01   -0.27220E+02  6480   0.146E+01    0.381E+00
RMM:   2    -0.253299528124E+04   -0.95891E+00   -0.98299E+00  7756   0.502E+00    0.196E+00
RMM:   3    -0.253323476488E+04   -0.23948E+00   -0.23000E+00  8751   0.143E+00    0.128E+00
RMM:   4    -0.253323466375E+04    0.10113E-03   -0.29873E-01  9606   0.431E-01    0.983E-01
RMM:   5    -0.253322913523E+04    0.55285E-02   -0.10492E-01  9851   0.195E-01    0.669E-01
RMM:   6    -0.253322514423E+04    0.39910E-02   -0.55399E-02  9083   0.197E-01    0.482E-01
RMM:   7    -0.253322670947E+04   -0.15652E-02   -0.19983E-02  9753   0.961E-02    0.272E-01
RMM:   8    -0.253322647137E+04    0.23810E-03   -0.44001E-03  7929   0.561E-02    0.174E-01
RMM:   9    -0.253322649297E+04   -0.21609E-04   -0.34359E-03  7973   0.429E-02    0.969E-02
RMM:  10    -0.253322652987E+04   -0.36894E-04   -0.79542E-04  5352   0.381E-02
  73 F= -.25332265E+04 E0= -.25332177E+04  d E =-.206906E+00  mag=   246.0000
       N       E                     dE             d eps       ncg     rms          rms(c)
DAV:   1    -0.253302195747E+04    0.20454E+00   -0.51065E+01  6560   0.632E+00    0.165E+00
RMM:   2    -0.253320529122E+04   -0.18333E+00   -0.18661E+00  7733   0.220E+00    0.833E-01
RMM:   3    -0.253325125391E+04   -0.45963E-01   -0.43926E-01  8767   0.625E-01    0.547E-01
RMM:   4    -0.253325140360E+04   -0.14969E-03   -0.58390E-02  9574   0.188E-01    0.423E-01
RMM:   5    -0.253325038619E+04    0.10174E-02   -0.21371E-02  9666   0.908E-02    0.287E-01
RMM:   6    -0.253324987201E+04    0.51419E-03   -0.11004E-02  9085   0.885E-02    0.215E-01
RMM:   7    -0.253325018011E+04   -0.30810E-03   -0.36620E-03  7936   0.431E-02    0.106E-01
RMM:   8    -0.253325015791E+04    0.22200E-04   -0.90812E-04  5518   0.373E-02
  74 F= -.25332502E+04 E0= -.25332413E+04  d E =-.230534E+00  mag=   246.0000
       N       E                     dE             d eps       ncg     rms          rms(c)
DAV:   1    -0.253324123429E+04    0.89458E-02   -0.12983E+01  6400   0.318E+00    0.820E-01
RMM:   2    -0.253328893174E+04   -0.47697E-01   -0.49470E-01  7915   0.112E+00    0.609E-01
RMM:   3    -0.253330067457E+04   -0.11743E-01   -0.11211E-01  8812   0.307E-01    0.270E-01
RMM:   4    -0.253330042111E+04    0.25346E-03   -0.14796E-02  9296   0.958E-02    0.228E-01
RMM:   5    -0.253330022656E+04    0.19455E-03   -0.54937E-03  7814   0.476E-02    0.164E-01
RMM:   6    -0.253330004760E+04    0.17897E-03   -0.35585E-03  8314   0.535E-02    0.102E-01
RMM:   7    -0.253330011526E+04   -0.67668E-04   -0.10049E-03  5798   0.314E-02    0.523E-02
RMM:   8    -0.253330012037E+04   -0.51104E-05   -0.27206E-04  4168   0.294E-02
  75 F= -.25333001E+04 E0= -.25332912E+04  d E =-.499625E-01  mag=   246.0000
       N       E                     dE             d eps       ncg     rms          rms(c)
DAV:   1    -0.253293657513E+04    0.36354E+00   -0.11166E+02  6080   0.932E+00    0.234E+00
RMM:   2    -0.253334615798E+04   -0.40958E+00   -0.42281E+00  7904   0.329E+00    0.170E+00
RMM:   3    -0.253344453596E+04   -0.98378E-01   -0.93764E-01  8766   0.905E-01    0.811E-01
RMM:   4    -0.253344282478E+04    0.17112E-02   -0.12089E-01  9658   0.275E-01    0.706E-01
RMM:   5    -0.253344060783E+04    0.22169E-02   -0.44340E-02  9827   0.127E-01    0.501E-01
RMM:   6    -0.253343836026E+04    0.22476E-02   -0.26018E-02  8909   0.136E-01    0.298E-01
RMM:   7    -0.253343906339E+04   -0.70313E-03   -0.92718E-03  9515   0.675E-02    0.153E-01
RMM:   8    -0.253343889908E+04    0.16431E-03   -0.18054E-03  6458   0.408E-02    0.115E-01
RMM:   9    -0.253343893391E+04   -0.34830E-04   -0.13664E-03  6413   0.329E-02    0.649E-02
RMM:  10    -0.253343896725E+04   -0.33339E-04   -0.41425E-04  4514   0.308E-02
  76 F= -.25334390E+04 E0= -.25334300E+04  d E =-.188809E+00  mag=   246.0000
       N       E                     dE             d eps       ncg     rms          rms(c)
DAV:   1    -0.253163480438E+04    0.18041E+01   -0.44631E+02  6080   0.187E+01    0.470E+00
RMM:   2    -0.253330407851E+04   -0.16693E+01   -0.17168E+01  7898   0.665E+00    0.325E+00
RMM:   3    -0.253370069351E+04   -0.39661E+00   -0.37847E+00  8761   0.184E+00    0.173E+00
RMM:   4    -0.253369460216E+04    0.60913E-02   -0.48764E-01  9695   0.556E-01    0.153E+00
RMM:   5    -0.253368171089E+04    0.12891E-01   -0.18079E-01  9709   0.269E-01    0.106E+00
RMM:   6    -0.253367330571E+04    0.84052E-02   -0.99918E-02  8918   0.270E-01    0.631E-01
RMM:   7    -0.253367629680E+04   -0.29911E-02   -0.37218E-02  9655   0.137E-01    0.322E-01
RMM:   8    -0.253367542631E+04    0.87049E-03   -0.85830E-03  9160   0.811E-02    0.221E-01
RMM:   9    -0.253367560450E+04   -0.17819E-03   -0.52390E-03  9036   0.513E-02    0.130E-01
RMM:  10    -0.253367565100E+04   -0.46499E-04   -0.10939E-03  5882   0.362E-02    0.961E-02
RMM:  11    -0.253367570722E+04   -0.56223E-04   -0.77956E-04  4903   0.315E-02
  77 F= -.25336757E+04 E0= -.25336666E+04  d E =-.425549E+00  mag=   246.0000
       N       E                     dE             d eps       ncg     rms          rms(c)
DAV:   1    -0.252532404006E+04    0.83516E+01   -0.17786E+03  6080   0.374E+01    0.102E+01
RMM:   2    -0.253244132805E+04   -0.71173E+01   -0.73248E+01  7923   0.137E+01    0.700E+00
RMM:   3    -0.253407595771E+04   -0.16346E+01   -0.15672E+01  8811   0.383E+00    0.429E+00
RMM:   4    -0.253402888593E+04    0.47072E-01   -0.19568E+00  9744   0.113E+00    0.372E+00
RMM:   5    -0.253394096325E+04    0.87923E-01   -0.77462E-01  9496   0.592E-01    0.256E+00
RMM:   6    -0.253390792312E+04    0.33040E-01   -0.42309E-01  9010   0.555E-01    0.143E+00
RMM:   7    -0.253391766531E+04   -0.97422E-02   -0.13926E-01  9703   0.287E-01    0.773E-01
RMM:   8    -0.253391295730E+04    0.47080E-02   -0.37617E-02  9607   0.159E-01    0.514E-01
RMM:   9    -0.253391370420E+04   -0.74691E-03   -0.17186E-02 10357   0.899E-02    0.309E-01
RMM:  10    -0.253391362671E+04    0.77496E-04   -0.51502E-03  9650   0.589E-02    0.199E-01
RMM:  11    -0.253391362569E+04    0.10151E-05   -0.24776E-03  7404   0.391E-02    0.118E-01
RMM:  12    -0.253391363363E+04   -0.79389E-05   -0.93351E-04  5800   0.404E-02
  78 F= -.25339136E+04 E0= -.25339038E+04  d E =-.663476E+00  mag=   246.0000
       N       E                     dE             d eps       ncg     rms          rms(c)
DAV:   1    -0.253345071655E+04    0.46291E+00   -0.13829E+02  6960   0.104E+01    0.302E+00
RMM:   2    -0.253397336275E+04   -0.52265E+00   -0.56875E+00  7988   0.380E+00    0.218E+00
RMM:   3    -0.253409399690E+04   -0.12063E+00   -0.11726E+00  8930   0.104E+00    0.115E+00
RMM:   4    -0.253408845823E+04    0.55387E-02   -0.14529E-01  9617   0.339E-01    0.101E+00
RMM:   5    -0.253408459375E+04    0.38645E-02   -0.59153E-02  9741   0.166E-01    0.743E-01
RMM:   6    -0.253408268608E+04    0.19077E-02   -0.37874E-02  8759   0.167E-01    0.393E-01
RMM:   7    -0.253408370151E+04   -0.10154E-02   -0.11670E-02  9776   0.823E-02    0.198E-01
RMM:   8    -0.253408307749E+04    0.62402E-03   -0.34326E-03  8352   0.481E-02    0.128E-01
RMM:   9    -0.253408306832E+04    0.91683E-05   -0.17480E-03  7104   0.369E-02    0.843E-02
RMM:  10    -0.253408309725E+04   -0.28925E-04   -0.65359E-04  5265   0.304E-02
  79 F= -.25340831E+04 E0= -.25340729E+04  d E =-.169464E+00  mag=   246.0000
       N       E                     dE             d eps       ncg     rms          rms(c)
DAV:   1    -0.252835621485E+04    0.57269E+01   -0.12384E+03  6720   0.314E+01    0.960E+00
RMM:   2    -0.253320610460E+04   -0.48499E+01   -0.51982E+01  7766   0.117E+01    0.722E+00
RMM:   3    -0.253445676696E+04   -0.12507E+01   -0.12100E+01  8804   0.348E+00    0.418E+00
RMM:   4    -0.253440259722E+04    0.54170E-01   -0.13720E+00  9694   0.107E+00    0.366E+00
RMM:   5    -0.253433993981E+04    0.62657E-01   -0.57367E-01  9548   0.550E-01    0.258E+00
RMM:   6    -0.253432225189E+04    0.17688E-01   -0.31686E-01  8708   0.483E-01    0.122E+00
RMM:   7    -0.253433018452E+04   -0.79326E-02   -0.95846E-02  9861   0.260E-01    0.698E-01
RMM:   8    -0.253432561574E+04    0.45688E-02   -0.27090E-02  9820   0.127E-01    0.432E-01
RMM:   9    -0.253432518750E+04    0.42824E-03   -0.13269E-02 10240   0.835E-02    0.256E-01
RMM:  10    -0.253432511333E+04    0.74171E-04   -0.49223E-03  9759   0.533E-02    0.135E-01
RMM:  11    -0.253432512385E+04   -0.10525E-04   -0.14450E-03  6816   0.360E-02    0.909E-02
RMM:  12    -0.253432515365E+04   -0.29792E-04   -0.69582E-04  5284   0.351E-02
  80 F= -.25343252E+04 E0= -.25343139E+04  d E =-.411520E+00  mag=   246.0000
       N       E                     dE             d eps       ncg     rms          rms(c)
DAV:   1    -0.253436234356E+04   -0.37220E-01   -0.20611E+01  7120   0.404E+00    0.167E+00
RMM:   2    -0.253445781520E+04   -0.95472E-01   -0.85902E-01  8005   0.148E+00    0.110E+00
RMM:   3    -0.253448241647E+04   -0.24601E-01   -0.19505E-01  8966   0.412E-01    0.530E-01
RMM:   4    -0.253448159575E+04    0.82072E-03   -0.22677E-02  9013   0.151E-01    0.475E-01
RMM:   5    -0.253448145345E+04    0.14231E-03   -0.79883E-03  8736   0.613E-02    0.345E-01
RMM:   6    -0.253448080657E+04    0.64688E-03   -0.59573E-03  8370   0.846E-02    0.252E-01
RMM:   7    -0.253448106000E+04   -0.25343E-03   -0.27844E-03  8129   0.468E-02    0.109E-01
RMM:   8    -0.253448095658E+04    0.10342E-03   -0.31307E-04  4332   0.298E-02    0.685E-02
RMM:   9    -0.253448093722E+04    0.19361E-04   -0.24523E-04  4038   0.248E-02
  81 F= -.25344809E+04 E0= -.25344694E+04  d E =-.155784E+00  mag=   246.0000
       N       E                     dE             d eps       ncg     rms          rms(c)
DAV:   1    -0.253368847311E+04    0.79248E+00   -0.18520E+02  6480   0.121E+01    0.505E+00
RMM:   2    -0.253454943514E+04   -0.86096E+00   -0.77077E+00  7951   0.450E+00    0.351E+00
RMM:   3    -0.253477423766E+04   -0.22480E+00   -0.17810E+00  8846   0.127E+00    0.166E+00
RMM:   4    -0.253476893623E+04    0.53014E-02   -0.20399E-01  9225   0.460E-01    0.145E+00
RMM:   5    -0.253476787842E+04    0.10578E-02   -0.72567E-02 10080   0.179E-01    0.109E+00
RMM:   6    -0.253476116455E+04    0.67139E-02   -0.44136E-02  8528   0.217E-01    0.723E-01
RMM:   7    -0.253476346313E+04   -0.22986E-02   -0.26182E-02  9265   0.138E-01    0.326E-01
RMM:   8    -0.253476275261E+04    0.71052E-03   -0.37913E-03  8514   0.623E-02    0.209E-01
RMM:   9    -0.253476265259E+04    0.10002E-03   -0.25756E-03  8229   0.439E-02    0.164E-01
[...]
       N       E                     dE             d eps       ncg     rms          rms(c)
DAV:   1    -0.253798542254E+04   -0.19898E-02   -0.24496E+00  6960   0.140E+00    0.966E-01
RMM:   2    -0.253800268112E+04   -0.17259E-01   -0.12107E-01  7707   0.589E-01    0.542E-01
RMM:   3    -0.253800816082E+04   -0.54797E-02   -0.35257E-02  8324   0.175E-01    0.247E-01
RMM:   4    -0.253800785003E+04    0.31080E-03   -0.37742E-03  7090   0.815E-02    0.205E-01
RMM:   5    -0.253800775275E+04    0.97275E-04   -0.15310E-03  6575   0.361E-02    0.162E-01
RMM:   6    -0.253800764934E+04    0.10341E-03   -0.92876E-04  5690   0.371E-02    0.947E-02
RMM:   7    -0.253800765624E+04   -0.68927E-05   -0.29137E-04  4088   0.343E-02
 169 F= -.25380077E+04 E0= -.25379934E+04  d E =-.241985E-01  mag=   246.0000
       N       E                     dE             d eps       ncg     rms          rms(c)
DAV:   1    -0.253799418205E+04    0.13467E-01   -0.17313E+00  7200   0.117E+00    0.827E-01
RMM:   2    -0.253800675127E+04   -0.12569E-01   -0.87692E-02  7703   0.496E-01    0.467E-01
RMM:   3    -0.253801081168E+04   -0.40604E-02   -0.25827E-02  8278   0.149E-01    0.213E-01
RMM:   4    -0.253801063329E+04    0.17839E-03   -0.29527E-03  6830   0.735E-02    0.183E-01
RMM:   5    -0.253801058867E+04    0.44620E-04   -0.10109E-03  5581   0.328E-02    0.142E-01
RMM:   6    -0.253801053509E+04    0.53579E-04   -0.74974E-04  5413   0.376E-02
 170 F= -.25380105E+04 E0= -.25379963E+04  d E =-.270774E-01  mag=   246.0000
       N       E                     dE             d eps       ncg     rms          rms(c)
DAV:   1    -0.253801090334E+04   -0.31467E-03   -0.11134E+00  7120   0.941E-01    0.610E-01
RMM:   2    -0.253801727035E+04   -0.63670E-02   -0.67495E-02  8006   0.405E-01    0.395E-01
RMM:   3    -0.253801889272E+04   -0.16224E-02   -0.15845E-02  8516   0.119E-01    0.186E-01
RMM:   4    -0.253801866808E+04    0.22464E-03   -0.18960E-03  6844   0.462E-02    0.121E-01
RMM:   5    -0.253801853995E+04    0.12813E-03   -0.66315E-04  5033   0.325E-02    0.103E-01
RMM:   6    -0.253801853241E+04    0.75436E-05   -0.25839E-04  4051   0.292E-02
 171 F= -.25380185E+04 E0= -.25380044E+04  d E =-.799731E-02  mag=   246.0000
       N       E                     dE             d eps       ncg     rms          rms(c)
DAV:   1    -0.253801834100E+04    0.19895E-03   -0.38893E-02  8240   0.180E-01    0.125E-01
RMM:   2    -0.253801859024E+04   -0.24924E-03   -0.27527E-03  7329   0.808E-02    0.103E-01
RMM:   3    -0.253801864191E+04   -0.51674E-04   -0.43026E-04  4420   0.274E-02
 172 F= -.25380186E+04 E0= -.25380045E+04  d E =-.810682E-02  mag=   246.0000
       N       E                     dE             d eps       ncg     rms          rms(c)
DAV:   1    -0.253801879650E+04   -0.20626E-03   -0.72946E-01  7440   0.802E-01    0.320E-01
RMM:   2    -0.253802210611E+04   -0.33096E-02   -0.31308E-02  7967   0.301E-01    0.221E-01
RMM:   3    -0.253802304573E+04   -0.93962E-03   -0.77397E-03  8464   0.864E-02    0.122E-01
RMM:   4    -0.253802298350E+04    0.62230E-04   -0.70029E-04  5003   0.362E-02
 173 F= -.25380230E+04 E0= -.25380089E+04  d E =-.434158E-02  mag=   246.0000
       N       E                     dE             d eps       ncg     rms          rms(c)
DAV:   1    -0.253799041358E+04    0.32632E-01   -0.64976E+00  6880   0.239E+00    0.957E-01
RMM:   2    -0.253802018059E+04   -0.29767E-01   -0.28303E-01  7964   0.911E-01    0.640E-01
RMM:   3    -0.253802850189E+04   -0.83213E-02   -0.68738E-02  8590   0.255E-01    0.365E-01
RMM:   4    -0.253802809683E+04    0.40506E-03   -0.76815E-03  7928   0.989E-02    0.286E-01
RMM:   5    -0.253802778141E+04    0.31542E-03   -0.31344E-03  7809   0.492E-02    0.185E-01
RMM:   6    -0.253802766684E+04    0.11457E-03   -0.19538E-03  7424   0.531E-02    0.141E-01
RMM:   7    -0.253802771588E+04   -0.49041E-04   -0.44105E-04  4641   0.304E-02
 174 F= -.25380277E+04 E0= -.25380138E+04  d E =-.907397E-02  mag=   246.0000
       N       E                     dE             d eps       ncg     rms          rms(c)
DAV:   1    -0.253802760060E+04    0.66243E-04   -0.49704E-01  6640   0.636E-01    0.247E-01
RMM:   2    -0.253802990077E+04   -0.23002E-02   -0.23578E-02  7944   0.253E-01    0.186E-01
RMM:   3    -0.253803056997E+04   -0.66920E-03   -0.58546E-03  8748   0.737E-02    0.866E-02
RMM:   4    -0.253803054007E+04    0.29899E-04   -0.44900E-04  4591   0.277E-02
 175 F= -.25380305E+04 E0= -.25380167E+04  d E =-.282419E-02  mag=   246.0000
       N       E                     dE             d eps       ncg     rms          rms(c)
DAV:   1    -0.253802778888E+04    0.27811E-02   -0.99372E-01  6640   0.895E-01    0.329E-01
RMM:   2    -0.253803228971E+04   -0.45008E-02   -0.44175E-02  7895   0.356E-01    0.213E-01
RMM:   3    -0.253803351154E+04   -0.12218E-02   -0.10977E-02  8718   0.102E-01    0.122E-01
RMM:   4    -0.253803347627E+04    0.35270E-04   -0.12359E-03  6018   0.357E-02    0.920E-02
RMM:   5    -0.253803342288E+04    0.53386E-04   -0.34090E-04  4297   0.260E-02
 176 F= -.25380334E+04 E0= -.25380196E+04  d E =-.570700E-02  mag=   246.0000
       N       E                     dE             d eps       ncg     rms          rms(c)
DAV:   1    -0.253801252123E+04    0.20955E-01   -0.39402E+00  6240   0.178E+00    0.654E-01
RMM:   2    -0.253803051169E+04   -0.17990E-01   -0.17816E-01  7898   0.715E-01    0.425E-01
RMM:   3    -0.253803553590E+04   -0.50242E-02   -0.44028E-02  8683   0.207E-01    0.223E-01
RMM:   4    -0.253803557285E+04   -0.36953E-04   -0.56290E-03  8102   0.713E-02    0.173E-01
RMM:   5    -0.253803541754E+04    0.15532E-03   -0.16165E-03  7026   0.378E-02    0.126E-01
RMM:   6    -0.253803535210E+04    0.65439E-04   -0.95198E-04  6096   0.394E-02
 177 F= -.25380354E+04 E0= -.25380217E+04  d E =-.763621E-02  mag=   246.0000
       N       E                     dE             d eps       ncg     rms          rms(c)
DAV:   1    -0.253803348391E+04    0.19336E-02   -0.12338E+00  6880   0.996E-01    0.326E-01
RMM:   2    -0.253803874620E+04   -0.52623E-02   -0.50742E-02  7945   0.366E-01    0.179E-01
RMM:   3    -0.253804012622E+04   -0.13800E-02   -0.11769E-02  8584   0.101E-01    0.976E-02
RMM:   4    -0.253804012812E+04   -0.18975E-05   -0.14691E-03  6281   0.366E-02    0.780E-02
RMM:   5    -0.253804009945E+04    0.28667E-04   -0.38004E-04  4507   0.238E-02
 178 F= -.25380401E+04 E0= -.25380265E+04  d E =-.474735E-02  mag=   246.0000
       N       E                     dE             d eps       ncg     rms          rms(c)
DAV:   1    -0.253800583072E+04    0.34297E-01   -0.79908E+00  6560   0.253E+00    0.806E-01
RMM:   2    -0.253803950007E+04   -0.33669E-01   -0.32035E-01  7854   0.932E-01    0.435E-01
RMM:   3    -0.253804820614E+04   -0.87061E-02   -0.74196E-02  8569   0.257E-01    0.253E-01
RMM:   4    -0.253804823921E+04   -0.33071E-04   -0.96839E-03  8441   0.869E-02    0.201E-01
RMM:   5    -0.253804799341E+04    0.24581E-03   -0.31429E-03  7612   0.433E-02    0.138E-01
RMM:   6    -0.253804785353E+04    0.13988E-03   -0.21246E-03  7671   0.497E-02    0.113E-01
RMM:   7    -0.253804791678E+04   -0.63256E-04   -0.72407E-04  5585   0.318E-02
 179 F= -.25380479E+04 E0= -.25380344E+04  d E =-.125647E-01  mag=   246.0000
       N       E                     dE             d eps       ncg     rms          rms(c)
DAV:   1    -0.253787559653E+04    0.17226E+00   -0.32014E+01  6480   0.506E+00    0.163E+00
RMM:   2    -0.253801243487E+04   -0.13684E+00   -0.13052E+00  7862   0.188E+00    0.879E-01
RMM:   3    -0.253804758844E+04   -0.35154E-01   -0.29674E-01  8648   0.516E-01    0.499E-01
RMM:   4    -0.253804767840E+04   -0.89956E-04   -0.37483E-02  8987   0.170E-01    0.401E-01
RMM:   5    -0.253804683618E+04    0.84221E-03   -0.12415E-02  9454   0.728E-02    0.281E-01
RMM:   6    -0.253804605710E+04    0.77908E-03   -0.75756E-03  8857   0.847E-02    0.212E-01
RMM:   7    -0.253804633460E+04   -0.27750E-03   -0.33176E-03  8052   0.442E-02    0.107E-01
RMM:   8    -0.253804625637E+04    0.78236E-04   -0.48466E-04  4891   0.375E-02
 180 F= -.25380463E+04 E0= -.25380331E+04  d E =-.109043E-01  mag=   246.0000
       N       E                     dE             d eps       ncg     rms          rms(c)
DAV:   1    -0.253800661637E+04    0.39718E-01   -0.84546E+00  6560   0.260E+00    0.821E-01
RMM:   2    -0.253804184507E+04   -0.35229E-01   -0.33358E-01  7852   0.957E-01    0.464E-01
RMM:   3    -0.253805059961E+04   -0.87545E-02   -0.73814E-02  8463   0.262E-01    0.257E-01
RMM:   4    -0.253805054237E+04    0.57241E-04   -0.86840E-03  7960   0.864E-02    0.209E-01
RMM:   5    -0.253805025274E+04    0.28963E-03   -0.24158E-03  7328   0.402E-02    0.152E-01
RMM:   6    -0.253804995502E+04    0.29771E-03   -0.21404E-03  7599   0.493E-02    0.103E-01
RMM:   7    -0.253804998951E+04   -0.34491E-04   -0.57562E-04  5274   0.297E-02
 181 F= -.25380500E+04 E0= -.25380366E+04  d E =-.146374E-01  mag=   246.0000
       N       E                     dE             d eps       ncg     rms          rms(c)
DAV:   1    -0.253803338253E+04    0.16572E-01   -0.31828E+00  6320   0.152E+00    0.120E+00
RMM:   2    -0.253805334944E+04   -0.19967E-01   -0.18220E-01  7856   0.664E-01    0.679E-01
RMM:   3    -0.253805940486E+04   -0.60554E-02   -0.45917E-02  8521   0.196E-01    0.275E-01
RMM:   4    -0.253805892928E+04    0.47558E-03   -0.51215E-03  8341   0.767E-02    0.214E-01
RMM:   5    -0.253805865324E+04    0.27605E-03   -0.17325E-03  6603   0.397E-02    0.137E-01
RMM:   6    -0.253805858357E+04    0.69666E-04   -0.73766E-04  5372   0.393E-02
 182 F= -.25380586E+04 E0= -.25380452E+04  d E =-.859405E-02  mag=   246.0000
       N       E                     dE             d eps       ncg     rms          rms(c)
DAV:   1    -0.253805837204E+04    0.28120E-03   -0.13416E-01  7520   0.314E-01    0.244E-01
RMM:   2    -0.253805916818E+04   -0.79614E-03   -0.75006E-03  7621   0.140E-01    0.156E-01
RMM:   3    -0.253805935111E+04   -0.18293E-03   -0.14019E-03  5909   0.426E-02    0.595E-02
RMM:   4    -0.253805933520E+04    0.15910E-04   -0.18703E-04  3863   0.289E-02
 183 F= -.25380593E+04 E0= -.25380460E+04  d E =-.934568E-02  mag=   246.0000
       N       E                     dE             d eps       ncg     rms          rms(c)
DAV:   1    -0.253805225298E+04    0.70981E-02   -0.15711E+00  6240   0.113E+00    0.588E-01
RMM:   2    -0.253806192966E+04   -0.96767E-02   -0.83950E-02  8196   0.478E-01    0.379E-01
RMM:   3    -0.253806456814E+04   -0.26385E-02   -0.18669E-02  8488   0.130E-01    0.157E-01
RMM:   4    -0.253806446513E+04    0.10300E-03   -0.17731E-03  7329   0.497E-02    0.118E-01
RMM:   5    -0.253806434476E+04    0.12037E-03   -0.34968E-04  4279   0.286E-02    0.102E-01
RMM:   6    -0.253806429596E+04    0.48801E-04   -0.41987E-04  4597   0.303E-02
 184 F= -.25380643E+04 E0= -.25380510E+04  d E =-.496076E-02  mag=   246.0000
       N       E                     dE             d eps       ncg     rms          rms(c)
DAV:   1    -0.253805740615E+04    0.69386E-02   -0.96158E-01  6240   0.887E-01    0.467E-01
RMM:   2    -0.253806339987E+04   -0.59937E-02   -0.52346E-02  8179   0.378E-01    0.321E-01
RMM:   3    -0.253806516784E+04   -0.17680E-02   -0.12905E-02  8766   0.105E-01    0.133E-01
RMM:   4    -0.253806508773E+04    0.80107E-04   -0.11524E-03  6231   0.381E-02    0.965E-02
RMM:   5    -0.253806501459E+04    0.73144E-04   -0.25819E-04  3957   0.279E-02
 185 F= -.25380650E+04 E0= -.25380518E+04  d E =-.567939E-02  mag=   246.0000
       N       E                     dE             d eps       ncg     rms          rms(c)
DAV:   1    -0.253806346701E+04    0.16207E-02   -0.85748E-01  6640   0.830E-01    0.304E-01
RMM:   2    -0.253806768143E+04   -0.42144E-02   -0.38667E-02  8061   0.323E-01    0.179E-01
RMM:   3    -0.253806876343E+04   -0.10820E-02   -0.87878E-03  8690   0.877E-02    0.945E-02
RMM:   4    -0.253806873744E+04    0.25986E-04   -0.95515E-04  5647   0.329E-02
 186 F= -.25380687E+04 E0= -.25380556E+04  d E =-.372285E-02  mag=   246.0000
       N       E                     dE             d eps       ncg     rms          rms(c)
DAV:   1    -0.253806143389E+04    0.73295E-02   -0.18157E+00  6480   0.120E+00    0.429E-01
RMM:   2    -0.253807016443E+04   -0.87305E-02   -0.79540E-02  7949   0.474E-01    0.256E-01
RMM:   3    -0.253807248005E+04   -0.23156E-02   -0.19195E-02  8740   0.133E-01    0.145E-01
RMM:   4    -0.253807246878E+04    0.11276E-04   -0.25455E-03  7534   0.477E-02    0.115E-01
RMM:   5    -0.253807234630E+04    0.12248E-03   -0.54254E-04  4888   0.277E-02    0.862E-02
RMM:   6    -0.253807231714E+04    0.29155E-04   -0.58087E-04  5109   0.331E-02
 187 F= -.25380723E+04 E0= -.25380592E+04  d E =-.730256E-02  mag=   246.0000
       N       E                     dE             d eps       ncg     rms          rms(c)
DAV:   1    -0.253802960439E+04    0.42742E-01   -0.72299E+00  6480   0.241E+00    0.886E-01
RMM:   2    -0.253806487580E+04   -0.35271E-01   -0.32384E-01  8018   0.945E-01    0.542E-01
RMM:   3    -0.253807399137E+04   -0.91156E-02   -0.73126E-02  8767   0.260E-01    0.265E-01
RMM:   4    -0.253807402285E+04   -0.31475E-04   -0.93623E-03  8630   0.930E-02    0.211E-01
RMM:   5    -0.253807376623E+04    0.25662E-03   -0.29944E-03  8385   0.421E-02    0.159E-01
RMM:   6    -0.253807357949E+04    0.18674E-03   -0.16790E-03  7413   0.427E-02    0.924E-02
RMM:   7    -0.253807361304E+04   -0.33544E-04   -0.64167E-04  5383   0.323E-02
 188 F= -.25380736E+04 E0= -.25380607E+04  d E =-.859845E-02  mag=   246.0000
       N       E                     dE             d eps       ncg     rms          rms(c)
DAV:   1    -0.253806406847E+04    0.95110E-02   -0.25856E+00  6560   0.144E+00    0.507E-01
RMM:   2    -0.253807566786E+04   -0.11599E-01   -0.11098E-01  7945   0.539E-01    0.263E-01
RMM:   3    -0.253807852841E+04   -0.28605E-02   -0.24290E-02  8662   0.147E-01    0.139E-01
RMM:   4    -0.253807853277E+04   -0.43608E-05   -0.31546E-03  7265   0.519E-02    0.109E-01
RMM:   5    -0.253807846310E+04    0.69662E-04   -0.86378E-04  5567   0.305E-02
 189 F= -.25380785E+04 E0= -.25380656E+04  d E =-.485007E-02  mag=   246.0000
       N       E                     dE             d eps       ncg     rms          rms(c)
DAV:   1    -0.253807113401E+04    0.73988E-02   -0.16846E+00  6640   0.116E+00    0.408E-01
RMM:   2    -0.253807852267E+04   -0.73887E-02   -0.70137E-02  7907   0.428E-01    0.219E-01
RMM:   3    -0.253808038031E+04   -0.18576E-02   -0.16079E-02  8700   0.118E-01    0.119E-01
RMM:   4    -0.253808036755E+04    0.12765E-04   -0.21716E-03  6843   0.411E-02    0.887E-02
RMM:   5    -0.253808030695E+04    0.60591E-04   -0.67566E-04  5141   0.287E-02
 190 F= -.25380803E+04 E0= -.25380675E+04  d E =-.669392E-02  mag=   246.0000
       N       E                     dE             d eps       ncg     rms          rms(c)
DAV:   1    -0.253807711579E+04    0.32518E-02   -0.18237E+00  6240   0.120E+00    0.415E-01
RMM:   2    -0.253808525247E+04   -0.81367E-02   -0.77293E-02  7918   0.453E-01    0.243E-01
RMM:   3    -0.253808737304E+04   -0.21206E-02   -0.18105E-02  8566   0.127E-01    0.135E-01
RMM:   4    -0.253808736732E+04    0.57190E-05   -0.23049E-03  7026   0.446E-02    0.105E-01
RMM:   5    -0.253808729382E+04    0.73493E-04   -0.61063E-04  4996   0.268E-02
 191 F= -.25380873E+04 E0= -.25380746E+04  d E =-.698687E-02  mag=   246.0000
       N       E                     dE             d eps       ncg     rms          rms(c)
DAV:   1    -0.253801092241E+04    0.76445E-01   -0.15645E+01  6320   0.351E+00    0.121E+00
RMM:   2    -0.253807940265E+04   -0.68480E-01   -0.64896E-01  7903   0.132E+00    0.718E-01
RMM:   3    -0.253809706395E+04   -0.17661E-01   -0.15027E-01  8699   0.368E-01    0.398E-01
RMM:   4    -0.253809720504E+04   -0.14108E-03   -0.19876E-02  9023   0.125E-01    0.313E-01
RMM:   5    -0.253809667928E+04    0.52575E-03   -0.66658E-03  8940   0.579E-02    0.204E-01
RMM:   6    -0.253809647226E+04    0.20702E-03   -0.34077E-03  8567   0.608E-02    0.166E-01
RMM:   7    -0.253809656571E+04   -0.93444E-04   -0.10651E-03  5959   0.319E-02    0.736E-02
RMM:   8    -0.253809656910E+04   -0.33950E-05   -0.24802E-04  4052   0.352E-02
 192 F= -.25380966E+04 E0= -.25380841E+04  d E =-.162621E-01  mag=   246.0000
       N       E                     dE             d eps       ncg     rms          rms(c)
DAV:   1    -0.253809625063E+04    0.31507E-03   -0.79883E-01  6640   0.792E-01    0.235E-01
RMM:   2    -0.253809960170E+04   -0.33511E-02   -0.33366E-02  8025   0.289E-01    0.138E-01
RMM:   3    -0.253810042219E+04   -0.82049E-03   -0.74383E-03  8573   0.778E-02    0.822E-02
RMM:   4    -0.253810040713E+04    0.15056E-04   -0.80900E-04  5380   0.293E-02
 193 F= -.25381004E+04 E0= -.25380879E+04  d E =-.383803E-02  mag=   246.0000
       N       E                     dE             d eps       ncg     rms          rms(c)
DAV:   1    -0.253809006644E+04    0.10356E-01   -0.32867E+00  6240   0.160E+00    0.436E-01
RMM:   2    -0.253810332545E+04   -0.13259E-01   -0.13100E-01  7884   0.585E-01    0.253E-01
RMM:   3    -0.253810648752E+04   -0.31621E-02   -0.29105E-02  8576   0.156E-01    0.174E-01
RMM:   4    -0.253810652624E+04   -0.38721E-04   -0.40659E-03  7728   0.538E-02    0.140E-01
RMM:   5    -0.253810643936E+04    0.86873E-04   -0.13059E-03  6154   0.330E-02    0.101E-01
RMM:   6    -0.253810639358E+04    0.45785E-04   -0.89023E-04  5872   0.376E-02
 194 F= -.25381064E+04 E0= -.25380940E+04  d E =-.982448E-02  mag=   246.0000
       N       E                     dE             d eps       ncg     rms          rms(c)
DAV:   1    -0.253804611265E+04    0.60327E-01   -0.13090E+01  6080   0.319E+00    0.890E-01
RMM:   2    -0.253809982914E+04   -0.53716E-01   -0.53258E-01  8054   0.114E+00    0.496E-01
RMM:   3    -0.253811162735E+04   -0.11798E-01   -0.10612E-01  8633   0.291E-01    0.328E-01
RMM:   4    -0.253811181316E+04   -0.18581E-03   -0.14759E-02  9271   0.102E-01    0.263E-01
RMM:   5    -0.253811153650E+04    0.27667E-03   -0.51367E-03  8434   0.502E-02    0.183E-01
RMM:   6    -0.253811136571E+04    0.17079E-03   -0.33706E-03  8488   0.575E-02    0.121E-01
RMM:   7    -0.253811145488E+04   -0.89169E-04   -0.92304E-04  5820   0.324E-02
 195 F= -.25381115E+04 E0= -.25380992E+04  d E =-.148858E-01  mag=   246.0000
       N       E                     dE             d eps       ncg     rms          rms(c)
DAV:   1    -0.253810160014E+04    0.97656E-02   -0.31912E+00  6400   0.157E+00    0.499E-01
RMM:   2    -0.253811493451E+04   -0.13334E-01   -0.12740E-01  7957   0.571E-01    0.260E-01
RMM:   3    -0.253811838443E+04   -0.34499E-02   -0.29244E-02  8501   0.153E-01    0.142E-01
RMM:   4    -0.253811841133E+04   -0.26897E-04   -0.37160E-03  7576   0.542E-02    0.112E-01
RMM:   5    -0.253811834651E+04    0.64815E-04   -0.12279E-03  6051   0.324E-02    0.787E-02
RMM:   6    -0.253811830418E+04    0.42329E-04   -0.61945E-04  5127   0.331E-02
 196 F= -.25381183E+04 E0= -.25381061E+04  d E =-.684930E-02  mag=   246.0000
       N       E                     dE             d eps       ncg     rms          rms(c)
DAV:   1    -0.253798404335E+04    0.13430E+00   -0.28664E+01  6080   0.470E+00    0.145E+00
RMM:   2    -0.253810118810E+04   -0.11714E+00   -0.11090E+00  7881   0.171E+00    0.753E-01
RMM:   3    -0.253813159095E+04   -0.30403E-01   -0.25855E-01  8596   0.462E-01    0.425E-01
RMM:   4    -0.253813206036E+04   -0.46941E-03   -0.33440E-02  9177   0.151E-01    0.345E-01
RMM:   5    -0.253813140936E+04    0.65100E-03   -0.11258E-02  9397   0.668E-02    0.245E-01
RMM:   6    -0.253813089553E+04    0.51384E-03   -0.61839E-03  8954   0.708E-02    0.163E-01
RMM:   7    -0.253813105825E+04   -0.16272E-03   -0.24445E-03  7619   0.398E-02    0.825E-02
