       N       E                     dE             d eps       ncg     rms          rms(c)
DAV:   1     0.402569772701E+05    0.40257E+05   -0.86189E+05  6800   0.262E+03
DAV:   2     0.145224595289E+05   -0.25735E+05   -0.23051E+05  6720   0.690E+02
DAV:   3     0.345891005642E+04   -0.11064E+05   -0.99512E+04  7040   0.357E+02
DAV:   4    -0.165131714784E+04   -0.51102E+04   -0.47544E+04  9760   0.199E+02
DAV:   5    -0.282925648586E+04   -0.11779E+04   -0.11434E+04 11120   0.105E+02    0.215E+02
RMM:   6    -0.250100804265E+04    0.32825E+03   -0.76606E+03  8855   0.109E+02    0.341E+02
RMM:   7    -0.257846117121E+04   -0.77453E+02   -0.19073E+03  9396   0.349E+01    0.194E+02
RMM:   8    -0.246031439381E+04    0.11815E+03   -0.13400E+03  7449   0.558E+01    0.991E+01
RMM:   9    -0.254735706981E+04   -0.87043E+02   -0.84483E+02  8728   0.195E+01    0.730E+01
RMM:  10    -0.254703921771E+04    0.31785E+00   -0.19306E+02  8427   0.137E+01    0.386E+01
RMM:  11    -0.253711428570E+04    0.99249E+01   -0.11677E+02  8770   0.961E+00    0.214E+01
RMM:  12    -0.253783961477E+04   -0.72533E+00   -0.48524E+01  9271   0.492E+00    0.191E+01
RMM:  13    -0.253827420921E+04   -0.43459E+00   -0.10894E+01  9496   0.189E+00    0.176E+01
RMM:  14    -0.254032407316E+04   -0.20499E+01   -0.22383E+01  8426   0.403E+00    0.177E+01
RMM:  15    -0.253883734794E+04    0.14867E+01   -0.38896E+00  7948   0.230E+00    0.147E+01
RMM:  16    -0.253682636471E+04    0.20110E+01   -0.99602E+00  8678   0.255E+00    0.867E+00
RMM:  17    -0.253693120285E+04   -0.10484E+00   -0.55147E+00  9040   0.200E+00    0.496E+00
RMM:  18    -0.253702875076E+04   -0.97548E-01   -0.71818E-01  8328   0.798E-01    0.480E+00
RMM:  19    -0.253704792312E+04   -0.19172E-01   -0.24321E-01  9055   0.377E-01    0.339E+00
RMM:  20    -0.253704958871E+04   -0.16656E-02   -0.11579E-01  9404   0.208E-01    0.278E+00
RMM:  21    -0.253704381735E+04    0.57714E-02   -0.12486E-01  8301   0.332E-01    0.136E+00
RMM:  22    -0.253704575334E+04   -0.19360E-02   -0.53323E-02  8426   0.166E-01    0.106E+00
RMM:  23    -0.253705192405E+04   -0.61707E-02   -0.60400E-02  8649   0.192E-01    0.724E-01
RMM:  24    -0.253705625727E+04   -0.43332E-02   -0.25245E-02  8196   0.117E-01    0.642E-01
RMM:  25    -0.253705501231E+04    0.12450E-02   -0.11492E-02  6443   0.720E-02    0.550E-01
RMM:  26    -0.253705331339E+04    0.16989E-02   -0.12493E-02  7471   0.761E-02    0.383E-01
RMM:  27    -0.253705251445E+04    0.79893E-03   -0.15300E-02  8150   0.878E-02    0.182E-01
RMM:  28    -0.253705311576E+04   -0.60131E-03   -0.12012E-02  8010   0.809E-02    0.921E-02
RMM:  29    -0.253705367658E+04   -0.56082E-03   -0.57010E-03  5492   0.426E-02    0.642E-02
RMM:  30    -0.253705402705E+04   -0.35047E-03   -0.40322E-03  4532   0.359E-02    0.459E-02
RMM:  31    -0.253705422033E+04   -0.19328E-03   -0.28361E-03  5300   0.355E-02    0.325E-02
RMM:  32    -0.253705442573E+04   -0.20540E-03   -0.21022E-03  4425   0.297E-02    0.335E-02
RMM:  33    -0.253705456364E+04   -0.13792E-03   -0.14457E-03  4312   0.218E-02    0.417E-02
RMM:  34    -0.253705467352E+04   -0.10988E-03   -0.12565E-03  4314   0.217E-02    0.388E-02
RMM:  35    -0.253705476012E+04   -0.86595E-04   -0.89912E-04  4240   0.162E-02
   1 F= -.25370548E+04 E0= -.25370000E+04  d E =-.253705E+04  mag=   256.0039
       N       E                     dE             d eps       ncg     rms          rms(c)
DAV:   1    -0.253790405545E+04   -0.84938E+00   -0.29003E+01  8320   0.715E+00    0.755E+00
RMM:   2    -0.253713274994E+04    0.77131E+00   -0.25190E+00  7934   0.246E+00    0.339E+00
RMM:   3    -0.253706152557E+04    0.71224E-01   -0.10655E+00  7622   0.131E+00    0.254E+00
RMM:   4    -0.253706986105E+04   -0.83355E-02   -0.16986E-01  7619   0.717E-01    0.108E+00
RMM:   5    -0.253706196131E+04    0.78997E-02   -0.37459E-02  7873   0.280E-01    0.507E-01
RMM:   6    -0.253706364924E+04   -0.16879E-02   -0.32878E-02  8370   0.163E-01    0.285E-01
RMM:   7    -0.253706334467E+04    0.30456E-03   -0.19954E-03  6615   0.603E-02    0.212E-01
RMM:   8    -0.253706305344E+04    0.29124E-03   -0.13302E-02  7834   0.100E-01    0.149E-01
RMM:   9    -0.253706297458E+04    0.78854E-04   -0.11731E-03  5223   0.535E-02    0.119E-01
RMM:  10    -0.253706291620E+04    0.58385E-04   -0.19145E-04  3931   0.280E-02
   2 F= -.25370629E+04 E0= -.25370097E+04  d E =-.815608E-02  mag=   256.0003
       N       E                     dE             d eps       ncg     rms          rms(c)
DAV:   1    -0.253727974887E+04   -0.21677E+00   -0.61718E+00  8240   0.333E+00    0.347E+00
RMM:   2    -0.253711515611E+04    0.16459E+00   -0.53815E-01  7931   0.113E+00    0.157E+00
RMM:   3    -0.253709957218E+04    0.15584E-01   -0.23076E-01  7669   0.602E-01    0.117E+00
RMM:   4    -0.253710071778E+04   -0.11456E-02   -0.35397E-02  7533   0.329E-01    0.508E-01
RMM:   5    -0.253709893059E+04    0.17872E-02   -0.78172E-03  7851   0.125E-01    0.239E-01
RMM:   6    -0.253709906074E+04   -0.13015E-03   -0.64413E-03  7795   0.767E-02    0.123E-01
RMM:   7    -0.253709896187E+04    0.98869E-04   -0.32523E-04  4341   0.340E-02
   3 F= -.25370990E+04 E0= -.25370451E+04  d E =-.442018E-01  mag=   256.0000
