       N       E                     dE             d eps       ncg     rms          rms(c)
DAV:   1     0.208557816191E+04    0.20856E+04   -0.13176E+05 12080   0.200E+03
DAV:   2     0.657516304420E+02   -0.20198E+04   -0.17247E+04  9600   0.301E+02
DAV:   3    -0.283648661094E+03   -0.34940E+03   -0.31782E+03 14880   0.129E+02
DAV:   4    -0.305657786291E+03   -0.22009E+02   -0.21962E+02 13280   0.308E+01
DAV:   5    -0.306709484692E+03   -0.10517E+01   -0.10506E+01 15680   0.537E+00    0.153E+01
RMM:   6    -0.306677037790E+03    0.32447E-01   -0.67129E+00 12236   0.581E+00    0.118E+01
RMM:   7    -0.306752140070E+03   -0.75102E-01   -0.14032E+00 12336   0.260E+00    0.436E+00
RMM:   8    -0.306649856320E+03    0.10228E+00   -0.40456E-01 11617   0.184E+00    0.313E+00
RMM:   9    -0.306656443408E+03   -0.65871E-02   -0.18179E-01 12962   0.950E-01    0.952E-01
RMM:  10    -0.306661187223E+03   -0.47438E-02   -0.51435E-02 12970   0.489E-01    0.690E-01
RMM:  11    -0.306661777939E+03   -0.59072E-03   -0.14399E-02 12982   0.229E-01    0.247E-01
RMM:  12    -0.306662228746E+03   -0.45081E-03   -0.46111E-03 12229   0.165E-01    0.178E-01
RMM:  13    -0.306662330716E+03   -0.10197E-03   -0.15315E-03  9702   0.817E-02    0.566E-02
RMM:  14    -0.306662376955E+03   -0.46238E-04   -0.65859E-04  8507   0.582E-02
   1 F= -.30666238E+03 E0= -.30665164E+03  d E =-.306662E+03  mag=    30.6793
       N       E                     dE             d eps       ncg     rms          rms(c)
DAV:   1    -0.308855384456E+03   -0.21931E+01   -0.23337E+02 11840   0.339E+01    0.179E+01
RMM:   2    -0.307691628007E+03    0.11638E+01   -0.12764E+01 12219   0.977E+00    0.176E+01
RMM:   3    -0.307575693022E+03    0.11593E+00   -0.27040E+00 12277   0.388E+00    0.520E+00
RMM:   4    -0.307368217300E+03    0.20748E+00   -0.70937E-01 12287   0.219E+00    0.279E+00
RMM:   5    -0.307362126514E+03    0.60908E-02   -0.22451E-01 12610   0.107E+00    0.109E+00
RMM:   6    -0.307361614882E+03    0.51163E-03   -0.43293E-02 11797   0.597E-01    0.729E-01
RMM:   7    -0.307361574768E+03    0.40114E-04   -0.13990E-02 12900   0.276E-01    0.202E-01
RMM:   8    -0.307362265421E+03   -0.69065E-03   -0.45645E-03 12935   0.139E-01    0.117E-01
RMM:   9    -0.307362575688E+03   -0.31027E-03   -0.16300E-03 10679   0.781E-02    0.635E-02
RMM:  10    -0.307362709290E+03   -0.13360E-03   -0.66020E-04  8583   0.586E-02    0.492E-02
RMM:  11    -0.307362841227E+03   -0.13194E-03   -0.53445E-04  8657   0.480E-02    0.391E-02
RMM:  12    -0.307362938148E+03   -0.96921E-04   -0.40209E-04  8184   0.467E-02
   2 F= -.30736294E+03 E0= -.30735038E+03  d E =-.700561E+00  mag=    27.4749
       N       E                     dE             d eps       ncg     rms          rms(c)
DAV:   1    -0.307377937330E+03   -0.15096E-01   -0.13434E+00 16000   0.269E+00    0.126E+00
RMM:   2    -0.307369581653E+03    0.83557E-02   -0.51669E-02 12181   0.607E-01    0.110E+00
RMM:   3    -0.307368788609E+03    0.79304E-03   -0.12814E-02 12268   0.252E-01    0.372E-01
RMM:   4    -0.307367577787E+03    0.12108E-02   -0.34948E-03 11385   0.170E-01    0.221E-01
RMM:   5    -0.307367569671E+03    0.81162E-05   -0.11167E-03 10229   0.891E-02    0.737E-02
RMM:   6    -0.307367574268E+03   -0.45973E-05   -0.26622E-04  7362   0.633E-02
   3 F= -.30736757E+03 E0= -.30735554E+03  d E =-.705197E+00  mag=    27.6592
       N       E                     dE             d eps       ncg     rms          rms(c)
DAV:   1    -0.307458612082E+03   -0.91042E-01   -0.44096E+01 10960   0.139E+01    0.423E+00
RMM:   2    -0.307499714508E+03   -0.41102E-01   -0.13833E+00 12362   0.314E+00    0.359E+00
RMM:   3    -0.307501755551E+03   -0.20410E-02   -0.17287E-01 12332   0.100E+00    0.152E+00
RMM:   4    -0.307499005564E+03    0.27500E-02   -0.69087E-02 12345   0.591E-01    0.123E+00
RMM:   5    -0.307523154047E+03   -0.24148E-01   -0.55913E-02 12588   0.398E-01    0.130E+00
RMM:   6    -0.307506993212E+03    0.16161E-01   -0.58466E-03 11632   0.248E-01    0.114E+00
RMM:   7    -0.307464834042E+03    0.42159E-01   -0.77677E-02 12272   0.473E-01    0.739E-01
RMM:   8    -0.307432909280E+03    0.31925E-01   -0.97054E-02 12607   0.530E-01    0.118E+00
RMM:   9    -0.307425741776E+03    0.71675E-02   -0.28375E-02 12785   0.294E-01    0.127E+00
RMM:  10    -0.307460499894E+03   -0.34758E-01   -0.38655E-02 12013   0.356E-01    0.960E-01
RMM:  11    -0.307487046233E+03   -0.26546E-01   -0.80298E-02 12437   0.470E-01    0.955E-01
RMM:  12    -0.307498947945E+03   -0.11902E-01   -0.26808E-02 12441   0.304E-01    0.110E+00
RMM:  13    -0.307536061732E+03   -0.37114E-01   -0.44981E-02 12658   0.315E-01    0.161E+00
RMM:  14    -0.307483066321E+03    0.52995E-01   -0.41127E-02 11994   0.391E-01    0.870E-01
RMM:  15    -0.307480242183E+03    0.28241E-02   -0.97638E-03 11303   0.191E-01    0.796E-01
RMM:  16    -0.307438434703E+03    0.41807E-01   -0.12452E-01 12319   0.550E-01    0.986E-01
RMM:  17    -0.307435395188E+03    0.30395E-02   -0.27179E-02 12180   0.348E-01    0.104E+00
RMM:  18    -0.307404783875E+03    0.30611E-01   -0.45835E-02 12663   0.300E-01    0.137E+00
RMM:  19    -0.307412010434E+03   -0.72266E-02   -0.35958E-03 10433   0.155E-01    0.127E+00
RMM:  20    -0.307393346494E+03    0.18664E-01   -0.87499E-03 11768   0.145E-01    0.148E+00
RMM:  21    -0.307388980646E+03    0.43658E-02   -0.26764E-03 10440   0.938E-02    0.153E+00
RMM:  22    -0.307380060163E+03    0.89205E-02   -0.24002E-03 10795   0.802E-02    0.163E+00
RMM:  23    -0.307378834735E+03    0.12254E-02   -0.48727E-04  8106   0.514E-02    0.164E+00
RMM:  24    -0.307349010780E+03    0.29824E-01   -0.70746E-03 11103   0.137E-01    0.200E+00
RMM:  25    -0.307356982312E+03   -0.79715E-02   -0.49413E-04  8017   0.819E-02    0.189E+00
RMM:  26    -0.307349212289E+03    0.77700E-02   -0.14631E-03  9569   0.640E-02    0.196E+00
RMM:  27    -0.307354750886E+03   -0.55386E-02   -0.15359E-04  6482   0.422E-02    0.189E+00
RMM:  28    -0.307361299666E+03   -0.65488E-02   -0.22552E-04  6953   0.392E-02    0.181E+00
RMM:  29    -0.307426062074E+03   -0.64762E-01   -0.43810E-02 11994   0.354E-01    0.976E-01
RMM:  30    -0.307452272242E+03   -0.26210E-01   -0.46096E-02 12465   0.380E-01    0.737E-01
RMM:  31    -0.307452894651E+03   -0.62241E-03   -0.79819E-03 11422   0.174E-01    0.750E-01
RMM:  32    -0.307462699571E+03   -0.98049E-02   -0.13218E-02 12063   0.167E-01    0.569E-01
RMM:  33    -0.307464788794E+03   -0.20892E-02   -0.37409E-03 10819   0.117E-01    0.553E-01
RMM:  34    -0.307467735300E+03   -0.29465E-02   -0.26791E-03 10713   0.835E-02    0.526E-01
RMM:  35    -0.307477455387E+03   -0.97201E-02   -0.12004E-02 11854   0.177E-01    0.518E-01
RMM:  36    -0.307486831409E+03   -0.93760E-02   -0.13457E-02 12144   0.191E-01    0.652E-01
RMM:  37    -0.307490434617E+03   -0.36032E-02   -0.40551E-03 11311   0.112E-01    0.739E-01
RMM:  38    -0.307487574086E+03    0.28605E-02   -0.27678E-04  7382   0.544E-02    0.717E-01
RMM:  39    -0.307488059885E+03   -0.48580E-03   -0.95132E-05  6511   0.326E-02    0.722E-01
RMM:  40    -0.307485611559E+03    0.24483E-02   -0.17323E-04  6694   0.333E-02    0.691E-01
RMM:  41    -0.307487771119E+03   -0.21596E-02   -0.60317E-05  6028   0.303E-02    0.709E-01
RMM:  42    -0.307491067976E+03   -0.32969E-02   -0.66314E-04  7983   0.424E-02    0.757E-01
RMM:  43    -0.307492300124E+03   -0.12321E-02   -0.22174E-04  6577   0.472E-02    0.777E-01
RMM:  44    -0.307489863440E+03    0.24367E-02   -0.44802E-05  5567   0.245E-02    0.752E-01
RMM:  45    -0.307489023726E+03    0.83971E-03   -0.39411E-05  5217   0.163E-02    0.739E-01
RMM:  46    -0.307486546974E+03    0.24768E-02   -0.23227E-04  6113   0.285E-02    0.702E-01
RMM:  47    -0.307478555729E+03    0.79912E-02   -0.35482E-03 10164   0.100E-01    0.603E-01
RMM:  48    -0.307476404763E+03    0.21510E-02   -0.16737E-03  8699   0.876E-02    0.564E-01
RMM:  49    -0.307475394770E+03    0.10100E-02   -0.59719E-04  7635   0.504E-02    0.552E-01
RMM:  50    -0.307474445452E+03    0.94932E-03   -0.33544E-04  6619   0.428E-02    0.545E-01
RMM:  51    -0.307472272834E+03    0.21726E-02   -0.87732E-04  8307   0.514E-02    0.538E-01
RMM:  52    -0.307469765498E+03    0.25073E-02   -0.12407E-03  9157   0.640E-02    0.541E-01
RMM:  53    -0.307469771692E+03   -0.61939E-05   -0.20627E-04  6022   0.397E-02
   4 F= -.30746977E+03 E0= -.30745703E+03  d E =-.102197E+00  mag=    27.8910
       N       E                     dE             d eps       ncg     rms          rms(c)
DAV:   1    -0.307468882977E+03    0.88252E-03   -0.82291E-04 16000   0.608E-02    0.529E-01
RMM:   2    -0.307476748134E+03   -0.78652E-02   -0.98689E-03 11241   0.165E-01    0.552E-01
RMM:   3    -0.307479640445E+03   -0.28923E-02   -0.34411E-03  9963   0.138E-01    0.557E-01
RMM:   4    -0.307471549850E+03    0.80906E-02   -0.30961E-03  9942   0.111E-01    0.556E-01
RMM:   5    -0.307460682481E+03    0.10867E-01   -0.11289E-02 11357   0.179E-01    0.650E-01
RMM:   6    -0.307498783865E+03   -0.38101E-01   -0.58837E-02 12034   0.427E-01    0.815E-01
RMM:   7    -0.307453844396E+03    0.44939E-01   -0.67192E-02 12122   0.475E-01    0.733E-01
RMM:   8    -0.307302876561E+03    0.15097E+00   -0.29729E-01 12417   0.906E-01    0.246E+00
RMM:   9    -0.307481203982E+03   -0.17833E+00   -0.32784E-01 12268   0.108E+00    0.524E-01
RMM:  10    -0.307484574716E+03   -0.33707E-02   -0.28349E-02 12340   0.322E-01    0.598E-01
RMM:  11    -0.307522686294E+03   -0.38112E-01   -0.63733E-02 12523   0.372E-01    0.120E+00
RMM:  12    -0.307525433247E+03   -0.27470E-02   -0.97887E-03 11700   0.217E-01    0.128E+00
RMM:  13    -0.307525559568E+03   -0.12632E-03   -0.24491E-03 10233   0.879E-02    0.131E+00
RMM:  14    -0.307519993305E+03    0.55663E-02   -0.29866E-04  7412   0.578E-02    0.125E+00
RMM:  15    -0.307520009909E+03   -0.16605E-04   -0.88609E-05  6392   0.325E-02
   5 F= -.30752001E+03 E0= -.30750150E+03  d E =-.152436E+00  mag=    26.2298
       N       E                     dE             d eps       ncg     rms          rms(c)
DAV:   1    -0.307519838986E+03    0.15432E-03   -0.12724E-03 17120   0.791E-02    0.125E+00
RMM:   2    -0.307576220983E+03   -0.56382E-01   -0.65806E-02 12208   0.410E-01    0.175E+00
RMM:   3    -0.307506800220E+03    0.69421E-01   -0.44946E-02 12232   0.414E-01    0.129E+00
RMM:   4    -0.307463985658E+03    0.42815E-01   -0.10412E-01 12245   0.495E-01    0.724E-01
RMM:   5    -0.307447041305E+03    0.16944E-01   -0.65076E-02 12567   0.472E-01    0.987E-01
RMM:   6    -0.307468586250E+03   -0.21545E-01   -0.98790E-03 11235   0.243E-01    0.776E-01
RMM:   7    -0.307601845625E+03   -0.13326E+00   -0.30515E-01 12289   0.935E-01    0.198E+00
RMM:   8    -0.307516741201E+03    0.85104E-01   -0.28178E-02 11698   0.542E-01    0.131E+00
RMM:   9    -0.307500075964E+03    0.16665E-01   -0.11375E-02 10976   0.205E-01    0.106E+00
RMM:  10    -0.307474475662E+03    0.25600E-01   -0.29763E-02 12137   0.291E-01    0.724E-01
RMM:  11    -0.307422484139E+03    0.51992E-01   -0.14143E-01 12487   0.612E-01    0.123E+00
RMM:  12    -0.307420576329E+03    0.19078E-02   -0.27184E-02 12306   0.354E-01    0.129E+00
RMM:  13    -0.307419851600E+03    0.72473E-03   -0.90302E-03 11340   0.137E-01    0.127E+00
RMM:  14    -0.307434519259E+03   -0.14668E-01   -0.22033E-03  9841   0.111E-01    0.106E+00
RMM:  15    -0.307471037473E+03   -0.36518E-01   -0.62756E-02 12143   0.431E-01    0.567E-01
RMM:  16    -0.307498027527E+03   -0.26990E-01   -0.69501E-02 12556   0.461E-01    0.821E-01
RMM:  17    -0.307556356203E+03   -0.58329E-01   -0.87924E-02 12738   0.463E-01    0.159E+00
RMM:  18    -0.307572109412E+03   -0.15753E-01   -0.20614E-02 12589   0.271E-01    0.179E+00
RMM:  19    -0.307559311506E+03    0.12798E-01   -0.20958E-03 10010   0.118E-01    0.173E+00
RMM:  20    -0.307539503700E+03    0.19808E-01   -0.24602E-03 10102   0.113E-01    0.155E+00
RMM:  21    -0.307540399050E+03   -0.89535E-03   -0.22978E-04  6853   0.600E-02    0.154E+00
RMM:  22    -0.307540419218E+03   -0.20168E-04   -0.87526E-05  6134   0.308E-02
   6 F= -.30754042E+03 E0= -.30752234E+03  d E =-.172845E+00  mag=    25.7602
       N       E                     dE             d eps       ncg     rms          rms(c)
DAV:   1    -0.307591959714E+03   -0.51561E-01   -0.14985E+01  9600   0.672E+00    0.212E+00
RMM:   2    -0.307713591988E+03   -0.12163E+00   -0.39691E-01 12334   0.155E+00    0.219E+00
RMM:   3    -0.307792353461E+03   -0.78761E-01   -0.13143E-01 12826   0.615E-01    0.227E+00
RMM:   4    -0.307772106565E+03    0.20247E-01   -0.11813E-02 12455   0.266E-01    0.237E+00
RMM:   5    -0.307946705511E+03   -0.17460E+00   -0.93015E-02 12311   0.546E-01    0.240E+00
RMM:   6    -0.308044978267E+03   -0.98273E-01   -0.11335E-01 12838   0.585E-01    0.173E+00
RMM:   7    -0.308094523874E+03   -0.49546E-01   -0.26883E-01 12735   0.837E-01    0.997E-01
RMM:   8    -0.308067573099E+03    0.26951E-01   -0.35870E-02 12115   0.468E-01    0.142E+00
RMM:   9    -0.308101007800E+03   -0.33435E-01   -0.38751E-02 12173   0.367E-01    0.313E-01
RMM:  10    -0.308097428545E+03    0.35793E-02   -0.44872E-02 12984   0.350E-01    0.749E-01
RMM:  11    -0.308101309897E+03   -0.38814E-02   -0.31070E-03 10732   0.136E-01    0.491E-01
RMM:  12    -0.308102505850E+03   -0.11960E-02   -0.11846E-03  9870   0.800E-02    0.269E-01
RMM:  13    -0.308103009550E+03   -0.50370E-03   -0.43489E-04  8160   0.540E-02    0.176E-01
RMM:  14    -0.308103472739E+03   -0.46319E-03   -0.75281E-04  9095   0.595E-02    0.228E-02
RMM:  15    -0.308103488083E+03   -0.15344E-04   -0.11788E-04  6844   0.432E-02
   7 F= -.30810349E+03 E0= -.30809149E+03  d E =-.563069E+00  mag=    19.9834
       N       E                     dE             d eps       ncg     rms          rms(c)
DAV:   1    -0.308118957983E+03   -0.15485E-01   -0.20783E+01  9600   0.792E+00    0.126E+00
RMM:   2    -0.308130212378E+03   -0.11254E-01   -0.34593E-01 12241   0.167E+00    0.102E+00
RMM:   3    -0.308130866522E+03   -0.65414E-03   -0.42514E-02 12537   0.491E-01    0.534E-01
RMM:   4    -0.308129172451E+03    0.16941E-02   -0.10755E-02 12284   0.221E-01    0.162E-01
RMM:   5    -0.308129276758E+03   -0.10431E-03   -0.22720E-03 11317   0.107E-01    0.915E-02
RMM:   6    -0.308129304528E+03   -0.27770E-04   -0.58521E-04  8133   0.614E-02
   8 F= -.30812930E+03 E0= -.30811768E+03  d E =-.588885E+00  mag=    20.0000
       N       E                     dE             d eps       ncg     rms          rms(c)
DAV:   1    -0.308213677379E+03   -0.84401E-01   -0.11688E+01 13200   0.746E+00    0.258E+00
RMM:   2    -0.308168360145E+03    0.45317E-01   -0.37948E-01 12230   0.172E+00    0.276E+00
RMM:   3    -0.308157556864E+03    0.10803E-01   -0.58163E-02 12460   0.597E-01    0.762E-01
RMM:   4    -0.308151799327E+03    0.57575E-02   -0.27845E-02 12390   0.362E-01    0.470E-01
RMM:   5    -0.308151050251E+03    0.74908E-03   -0.68179E-03 12327   0.209E-01    0.179E-01
RMM:   6    -0.308151013472E+03    0.36779E-04   -0.13627E-03 10342   0.112E-01    0.842E-02
RMM:   7    -0.308150993214E+03    0.20257E-04   -0.30407E-04  7589   0.585E-02
   9 F= -.30815099E+03 E0= -.30813949E+03  d E =-.216887E-01  mag=    20.0000
       N       E                     dE             d eps       ncg     rms          rms(c)
DAV:   1    -0.308151536398E+03   -0.52293E-03   -0.69818E-02 13760   0.574E-01    0.192E-01
RMM:   2    -0.308151232726E+03    0.30367E-03   -0.20262E-03 11401   0.127E-01    0.192E-01
RMM:   3    -0.308151161923E+03    0.70803E-04   -0.23869E-04  7348   0.593E-02
  10 F= -.30815116E+03 E0= -.30813966E+03  d E =-.218574E-01  mag=    20.0000
       N       E                     dE             d eps       ncg     rms          rms(c)
DAV:   1    -0.308150846286E+03    0.38644E-03   -0.17881E-01 11760   0.811E-01    0.391E-01
RMM:   2    -0.308151569072E+03   -0.72279E-03   -0.69788E-03 12010   0.196E-01    0.242E-01
RMM:   3    -0.308151780491E+03   -0.21142E-03   -0.83665E-04  9266   0.787E-02    0.949E-02
RMM:   4    -0.308151725742E+03    0.54748E-04   -0.24161E-04  7412   0.618E-02
  11 F= -.30815173E+03 E0= -.30814016E+03  d E =-.563820E-03  mag=    20.0000
       N       E                     dE             d eps       ncg     rms          rms(c)
DAV:   1    -0.308151740870E+03    0.39620E-04   -0.41355E-04 16720   0.641E-02    0.323E-02
RMM:   2    -0.308151739720E+03    0.11501E-05   -0.32526E-05  5032   0.127E-02
  12 F= -.30815174E+03 E0= -.30814018E+03  d E =-.577797E-03  mag=    20.0000
