       N       E                     dE             d eps       ncg     rms          rms(c)
DAV:   1     0.400655051815E+05    0.40066E+05   -0.85949E+05  6880   0.261E+03
DAV:   2     0.144605562365E+05   -0.25605E+05   -0.22843E+05  6640   0.688E+02
DAV:   3     0.347175298092E+04   -0.10989E+05   -0.98315E+04  6960   0.353E+02
DAV:   4    -0.161453787108E+04   -0.50863E+04   -0.47238E+04  9600   0.198E+02
DAV:   5    -0.279543994939E+04   -0.11809E+04   -0.11461E+04 11280   0.105E+02    0.209E+02
RMM:   6    -0.249094421104E+04    0.30450E+03   -0.70972E+03  8783   0.104E+02    0.329E+02
RMM:   7    -0.255797060102E+04   -0.67026E+02   -0.17134E+03  9365   0.336E+01    0.187E+02
RMM:   8    -0.245381786349E+04    0.10415E+03   -0.11106E+03  7349   0.521E+01    0.969E+01
RMM:   9    -0.252636594108E+04   -0.72548E+02   -0.70957E+02  8750   0.176E+01    0.721E+01
RMM:  10    -0.252793957630E+04   -0.15736E+01   -0.17551E+02  8459   0.129E+01    0.376E+01
RMM:  11    -0.252150496802E+04    0.64346E+01   -0.99826E+01  8949   0.846E+00    0.258E+01
RMM:  12    -0.252259792824E+04   -0.10930E+01   -0.42896E+01  9898   0.406E+00    0.214E+01
RMM:  13    -0.252223603757E+04    0.36189E+00   -0.96110E+00 10065   0.192E+00    0.201E+01
RMM:  14    -0.252212088499E+04    0.11515E+00   -0.45336E+00  8812   0.169E+00    0.170E+01
RMM:  15    -0.252218616786E+04   -0.65283E-01   -0.30390E+00  9653   0.123E+00    0.127E+01
RMM:  16    -0.252167700510E+04    0.50916E+00   -0.13347E+00  9021   0.957E-01    0.105E+01
RMM:  17    -0.252136756455E+04    0.30944E+00   -0.23319E+00  9166   0.124E+00    0.636E+00
RMM:  18    -0.252137531482E+04   -0.77503E-02   -0.92294E-01  9574   0.787E-01    0.462E+00
RMM:  19    -0.252137665239E+04   -0.13376E-02   -0.22791E-01  8928   0.364E-01    0.325E+00
RMM:  20    -0.252139317600E+04   -0.16524E-01   -0.11957E-01  8957   0.248E-01    0.223E+00
RMM:  21    -0.252139427473E+04   -0.10987E-02   -0.64191E-02  9061   0.211E-01    0.125E+00
RMM:  22    -0.252139122413E+04    0.30506E-02   -0.66803E-02  8363   0.199E-01    0.717E-01
RMM:  23    -0.252139286860E+04   -0.16445E-02   -0.37283E-02  8706   0.128E-01    0.407E-01
RMM:  24    -0.252139521086E+04   -0.23423E-02   -0.33683E-02  8132   0.125E-01    0.154E-01
RMM:  25    -0.252139645134E+04   -0.12405E-02   -0.13233E-02  6645   0.756E-02    0.818E-02
RMM:  26    -0.252139848580E+04   -0.20345E-02   -0.21855E-02  5041   0.522E-02    0.844E-02
RMM:  27    -0.252139940619E+04   -0.92039E-03   -0.90912E-03  4647   0.524E-02    0.824E-02
RMM:  28    -0.252139997764E+04   -0.57146E-03   -0.59839E-03  4560   0.355E-02    0.855E-02
RMM:  29    -0.252140033668E+04   -0.35904E-03   -0.41005E-03  4663   0.338E-02    0.837E-02
RMM:  30    -0.252140071653E+04   -0.37984E-03   -0.39639E-03  5402   0.373E-02    0.840E-02
RMM:  31    -0.252140094453E+04   -0.22801E-03   -0.23659E-03  4567   0.366E-02    0.738E-02
RMM:  32    -0.252140116207E+04   -0.21753E-03   -0.22487E-03  4429   0.224E-02    0.825E-02
RMM:  33    -0.252140129953E+04   -0.13746E-03   -0.14027E-03  4409   0.219E-02    0.925E-02
RMM:  34    -0.252140143779E+04   -0.13827E-03   -0.14161E-03  4386   0.181E-02    0.940E-02
RMM:  35    -0.252140152318E+04   -0.85382E-04   -0.85337E-04  4357   0.183E-02
   1 F= -.25214015E+04 E0= -.25213789E+04  d E =-.252140E+04  mag=   242.0039
       N       E                     dE             d eps       ncg     rms          rms(c)
DAV:   1    -0.251836851611E+04    0.30329E+01   -0.10864E+03  6880   0.257E+01    0.144E+01
RMM:   2    -0.252363814631E+04   -0.52696E+01   -0.58819E+01  7468   0.112E+01    0.840E+00
RMM:   3    -0.252529077348E+04   -0.16526E+01   -0.15270E+01  8491   0.370E+00    0.440E+00
RMM:   4    -0.252526119905E+04    0.29574E-01   -0.16706E+00  8343   0.145E+00    0.413E+00
RMM:   5    -0.252525887484E+04    0.23242E-02   -0.48538E-01  9670   0.463E-01    0.344E+00
RMM:   6    -0.252523070154E+04    0.28173E-01   -0.11289E-01  8269   0.376E-01    0.270E+00
RMM:   7    -0.252520650390E+04    0.24198E-01   -0.18143E-01  8689   0.369E-01    0.182E+00
RMM:   8    -0.252521663878E+04   -0.10135E-01   -0.76304E-02  9377   0.236E-01    0.155E+00
RMM:   9    -0.252521207053E+04    0.45682E-02   -0.19449E-02  8517   0.147E-01    0.615E-01
RMM:  10    -0.252521262005E+04   -0.54951E-03   -0.10508E-02  8985   0.899E-02    0.543E-01
RMM:  11    -0.252521264145E+04   -0.21406E-04   -0.31125E-03  7435   0.608E-02    0.179E-01
RMM:  12    -0.252521279644E+04   -0.15499E-03   -0.10711E-03  5795   0.352E-02    0.145E-01
RMM:  13    -0.252521278555E+04    0.10891E-04   -0.32799E-04  4158   0.282E-02
   2 F= -.25252128E+04 E0= -.25251822E+04  d E =-.381126E+01  mag=   244.4299
       N       E                     dE             d eps       ncg     rms          rms(c)
DAV:   1    -0.248879619786E+04    0.36417E+02   -0.53079E+03  6480   0.573E+01    0.445E+01
RMM:   2    -0.252054184278E+04   -0.31746E+02   -0.34966E+02  7442   0.260E+01    0.183E+01
RMM:   3    -0.252824305093E+04   -0.77012E+01   -0.79113E+01  8521   0.855E+00    0.126E+01
RMM:   4    -0.252749475383E+04    0.74830E+00   -0.85745E+00  8305   0.344E+00    0.111E+01
RMM:   5    -0.252696920785E+04    0.52555E+00   -0.30136E+00  9165   0.134E+00    0.838E+00
RMM:   6    -0.252659721736E+04    0.37199E+00   -0.28281E+00  8708   0.127E+00    0.456E+00
RMM:   7    -0.252664159551E+04   -0.44378E-01   -0.12213E+00  9701   0.770E-01    0.234E+00
RMM:   8    -0.252659826333E+04    0.43332E-01   -0.30792E-01  9177   0.434E-01    0.154E+00
RMM:   9    -0.252660499983E+04   -0.67365E-02   -0.10765E-01  9983   0.249E-01    0.731E-01
RMM:  10    -0.252660432822E+04    0.67161E-03   -0.23590E-02  9516   0.121E-01    0.346E-01
RMM:  11    -0.252660481991E+04   -0.49168E-03   -0.14652E-02  9183   0.946E-02    0.284E-01
RMM:  12    -0.252660472108E+04    0.98831E-04   -0.47199E-03  8268   0.596E-02    0.206E-01
RMM:  13    -0.252660464589E+04    0.75185E-04   -0.22785E-03  6989   0.424E-02    0.970E-02
RMM:  14    -0.252660469819E+04   -0.52302E-04   -0.94563E-04  5279   0.328E-02
   3 F= -.25266047E+04 E0= -.25265995E+04  d E =-.520318E+01  mag=   247.9312
       N       E                     dE             d eps       ncg     rms          rms(c)
DAV:   1    -0.251208198247E+04    0.14523E+02   -0.23886E+03  7200   0.386E+01    0.235E+01
RMM:   2    -0.252544550139E+04   -0.13364E+02   -0.16655E+02  7581   0.180E+01    0.182E+01
RMM:   3    -0.252933859353E+04   -0.38931E+01   -0.40264E+01  8920   0.584E+00    0.101E+01
RMM:   4    -0.252850502816E+04    0.83357E+00   -0.57868E+00  9172   0.211E+00    0.809E+00
RMM:   5    -0.252808772964E+04    0.41730E+00   -0.38353E+00  9013   0.135E+00    0.630E+00
RMM:   6    -0.252816725176E+04   -0.79522E-01   -0.20787E+00  9345   0.912E-01    0.311E+00
RMM:   7    -0.252810826024E+04    0.58992E-01   -0.54125E-01  8887   0.639E-01    0.193E+00
RMM:   8    -0.252810168776E+04    0.65725E-02   -0.65555E-01  9337   0.478E-01    0.120E+00
RMM:   9    -0.252810141904E+04    0.26871E-03   -0.86128E-02  9422   0.234E-01    0.811E-01
RMM:  10    -0.252809409138E+04    0.73277E-02   -0.61907E-02  8754   0.179E-01    0.490E-01
RMM:  11    -0.252809788124E+04   -0.37899E-02   -0.42318E-02  9106   0.133E-01    0.412E-01
RMM:  12    -0.252809572745E+04    0.21538E-02   -0.10728E-02  7867   0.855E-02    0.253E-01
RMM:  13    -0.252809690652E+04   -0.11791E-02   -0.17252E-02  8246   0.863E-02    0.229E-01
RMM:  14    -0.252809633363E+04    0.57289E-03   -0.20087E-03  5181   0.490E-02    0.155E-01
RMM:  15    -0.252809611275E+04    0.22088E-03   -0.25322E-03  5798   0.404E-02    0.595E-02
RMM:  16    -0.252809621000E+04   -0.97250E-04   -0.14368E-03  5704   0.362E-02    0.360E-02
RMM:  17    -0.252809620149E+04    0.85165E-05   -0.21744E-04  3874   0.248E-02
   4 F= -.25280962E+04 E0= -.25280826E+04  d E =-.669468E+01  mag=   247.9994
       N       E                     dE             d eps       ncg     rms          rms(c)
DAV:   1    -0.252584940036E+04    0.22468E+01   -0.61188E+02  6400   0.192E+01    0.130E+01
RMM:   2    -0.252859092225E+04   -0.27415E+01   -0.32005E+01  7603   0.830E+00    0.595E+00
RMM:   3    -0.252929760251E+04   -0.70668E+00   -0.76878E+00  8588   0.272E+00    0.321E+00
RMM:   4    -0.252930940944E+04   -0.11807E-01   -0.12213E+00  9307   0.921E-01    0.273E+00
RMM:   5    -0.252927149848E+04    0.37911E-01   -0.27377E-01  9232   0.408E-01    0.204E+00
RMM:   6    -0.252926142361E+04    0.10075E-01   -0.14503E-01  9261   0.278E-01    0.978E-01
RMM:   7    -0.252926607042E+04   -0.46468E-02   -0.70710E-02  9364   0.209E-01    0.424E-01
RMM:   8    -0.252926477972E+04    0.12907E-02   -0.19668E-02  9500   0.111E-01    0.337E-01
RMM:   9    -0.252926476145E+04    0.18269E-04   -0.92301E-03  9398   0.708E-02    0.198E-01
RMM:  10    -0.252926486026E+04   -0.98805E-04   -0.21894E-03  6972   0.396E-02    0.135E-01
RMM:  11    -0.252926495387E+04   -0.93613E-04   -0.96818E-04  5651   0.365E-02
   5 F= -.25292650E+04 E0= -.25292570E+04  d E =-.786343E+01  mag=   248.0000
       N       E                     dE             d eps       ncg     rms          rms(c)
DAV:   1    -0.252779556171E+04    0.14693E+01   -0.54044E+02  6560   0.187E+01    0.133E+01
RMM:   2    -0.252965102097E+04   -0.18555E+01   -0.26129E+01  7591   0.750E+00    0.706E+00
RMM:   3    -0.253005923357E+04   -0.40821E+00   -0.54118E+00  8447   0.239E+00    0.378E+00
RMM:   4    -0.252999438928E+04    0.64844E-01   -0.73148E-01  8983   0.879E-01    0.276E+00
RMM:   5    -0.252995467297E+04    0.39716E-01   -0.39002E-01  8611   0.501E-01    0.167E+00
RMM:   6    -0.252996335810E+04   -0.86851E-02   -0.13338E-01  9496   0.292E-01    0.102E+00
RMM:   7    -0.252996507012E+04   -0.17120E-02   -0.32408E-02  9889   0.125E-01    0.419E-01
RMM:   8    -0.252996146327E+04    0.36069E-02   -0.11781E-02  9058   0.862E-02    0.219E-01
RMM:   9    -0.252996053986E+04    0.92341E-03   -0.12895E-02  8438   0.775E-02    0.127E-01
RMM:  10    -0.252996061740E+04   -0.77544E-04   -0.17809E-03  5996   0.439E-02    0.777E-02
RMM:  11    -0.252996060642E+04    0.10981E-04   -0.50694E-04  4570   0.317E-02
   6 F= -.25299606E+04 E0= -.25299563E+04  d E =-.695653E+00  mag=   248.0000
       N       E                     dE             d eps       ncg     rms          rms(c)
DAV:   1    -0.252993713213E+04    0.23485E-01   -0.37310E+01  7120   0.481E+00    0.324E+00
RMM:   2    -0.253005164452E+04   -0.11451E+00   -0.18232E+00  7718   0.189E+00    0.178E+00
RMM:   3    -0.253008032666E+04   -0.28682E-01   -0.38170E-01  8495   0.597E-01    0.981E-01
RMM:   4    -0.253007398235E+04    0.63443E-02   -0.47555E-02  8614   0.234E-01    0.721E-01
RMM:   5    -0.253007158036E+04    0.24020E-02   -0.40101E-02  8470   0.148E-01    0.493E-01
RMM:   6    -0.253007238345E+04   -0.80309E-03   -0.96966E-03  8781   0.855E-02    0.268E-01
RMM:   7    -0.253007226007E+04    0.12338E-03   -0.23395E-03  6782   0.395E-02    0.133E-01
RMM:   8    -0.253007182896E+04    0.43111E-03   -0.18858E-03  6046   0.407E-02    0.678E-02
RMM:   9    -0.253007181721E+04    0.11755E-04   -0.11700E-03  5483   0.353E-02    0.472E-02
RMM:  10    -0.253007181373E+04    0.34795E-05   -0.20359E-04  3941   0.301E-02
   7 F= -.25300718E+04 E0= -.25300668E+04  d E =-.806860E+00  mag=   248.0000
       N       E                     dE             d eps       ncg     rms          rms(c)
DAV:   1    -0.253096542563E+04   -0.89361E+00   -0.10358E+02  8080   0.105E+01    0.108E+01
RMM:   2    -0.253108524322E+04   -0.11982E+00   -0.70171E+00  7592   0.479E+00    0.775E+00
RMM:   3    -0.253139173006E+04   -0.30649E+00   -0.27091E+00  8561   0.157E+00    0.288E+00
RMM:   4    -0.253136046776E+04    0.31262E-01   -0.41893E-01  8129   0.829E-01    0.260E+00
RMM:   5    -0.253135811534E+04    0.23524E-02   -0.13478E-01  9268   0.295E-01    0.163E+00
RMM:   6    -0.253135333125E+04    0.47841E-02   -0.56124E-02  8493   0.257E-01    0.682E-01
RMM:   7    -0.253135357677E+04   -0.24553E-03   -0.18639E-02  8912   0.149E-01    0.612E-01
RMM:   8    -0.253135369083E+04   -0.11406E-03   -0.53385E-03  8767   0.556E-02    0.242E-01
RMM:   9    -0.253135333024E+04    0.36059E-03   -0.24209E-03  7446   0.612E-02    0.113E-01
RMM:  10    -0.253135337050E+04   -0.40251E-04   -0.14015E-03  6736   0.370E-02    0.846E-02
RMM:  11    -0.253135335472E+04    0.15775E-04   -0.30649E-04  4233   0.275E-02
   8 F= -.25313534E+04 E0= -.25313491E+04  d E =-.128154E+01  mag=   248.0000
       N       E                     dE             d eps       ncg     rms          rms(c)
DAV:   1    -0.253146130989E+04   -0.10794E+00   -0.58410E+01  7760   0.786E+00    0.821E+00
RMM:   2    -0.253153774290E+04   -0.76433E-01   -0.40334E+00  7518   0.370E+00    0.612E+00
RMM:   3    -0.253171470621E+04   -0.17696E+00   -0.15158E+00  8568   0.119E+00    0.222E+00
RMM:   4    -0.253169806441E+04    0.16642E-01   -0.24288E-01  8251   0.612E-01    0.193E+00
RMM:   5    -0.253169533028E+04    0.27341E-02   -0.75696E-02  9206   0.226E-01    0.119E+00
RMM:   6    -0.253169332858E+04    0.20017E-02   -0.34068E-02  8555   0.196E-01    0.446E-01
RMM:   7    -0.253169331214E+04    0.16442E-04   -0.95261E-03  8887   0.106E-01    0.415E-01
RMM:   8    -0.253169336169E+04   -0.49545E-04   -0.31145E-03  8137   0.413E-02    0.172E-01
RMM:   9    -0.253169317873E+04    0.18295E-03   -0.12318E-03  6365   0.493E-02    0.964E-02
RMM:  10    -0.253169320244E+04   -0.23709E-04   -0.83419E-04  5714   0.322E-02
   9 F= -.25316932E+04 E0= -.25316893E+04  d E =-.162139E+01  mag=   248.0000
       N       E                     dE             d eps       ncg     rms          rms(c)
DAV:   1    -0.253169581577E+04   -0.26370E-02   -0.11497E+00  8400   0.109E+00    0.114E+00
RMM:   2    -0.253169727390E+04   -0.14581E-02   -0.77893E-02  7513   0.514E-01    0.855E-01
RMM:   3    -0.253170077587E+04   -0.35020E-02   -0.29783E-02  8439   0.165E-01    0.305E-01
RMM:   4    -0.253170043072E+04    0.34515E-03   -0.47842E-03  7945   0.885E-02    0.265E-01
RMM:   5    -0.253170033723E+04    0.93490E-04   -0.12534E-03  6159   0.368E-02    0.162E-01
RMM:   6    -0.253170026550E+04    0.71731E-04   -0.64634E-04  5097   0.382E-02
  10 F= -.25317003E+04 E0= -.25316964E+04  d E =-.162845E+01  mag=   248.0000
       N       E                     dE             d eps       ncg     rms          rms(c)
DAV:   1    -0.253174202904E+04   -0.41692E-01   -0.15392E+01  7680   0.369E+00    0.361E+00
RMM:   2    -0.253182311594E+04   -0.81087E-01   -0.95504E-01  7487   0.181E+00    0.247E+00
RMM:   3    -0.253187932122E+04   -0.56205E-01   -0.38592E-01  8562   0.590E-01    0.811E-01
RMM:   4    -0.253187877415E+04    0.54707E-03   -0.49690E-02  8653   0.255E-01    0.768E-01
RMM:   5    -0.253187778853E+04    0.98561E-03   -0.11712E-02  9094   0.893E-02    0.499E-01
RMM:   6    -0.253187680109E+04    0.98744E-03   -0.72832E-03  8111   0.997E-02    0.328E-01
RMM:   7    -0.253187703680E+04   -0.23571E-03   -0.24595E-03  7733   0.435E-02    0.119E-01
RMM:   8    -0.253187695248E+04    0.84320E-04   -0.65879E-04  5259   0.411E-02
  11 F= -.25318770E+04 E0= -.25318738E+04  d E =-.176687E+00  mag=   248.0000
       N       E                     dE             d eps       ncg     rms          rms(c)
DAV:   1    -0.253102833209E+04    0.84870E+00   -0.11551E+02  7520   0.101E+01    0.987E+00
RMM:   2    -0.253164596934E+04   -0.61764E+00   -0.72372E+00  7496   0.499E+00    0.665E+00
RMM:   3    -0.253207214373E+04   -0.42617E+00   -0.29273E+00  8560   0.163E+00    0.220E+00
RMM:   4    -0.253206732767E+04    0.48161E-02   -0.36559E-01  8688   0.691E-01    0.208E+00
RMM:   5    -0.253205924129E+04    0.80864E-02   -0.84178E-02  9401   0.238E-01    0.132E+00
RMM:   6    -0.253205155908E+04    0.76822E-02   -0.53743E-02  8322   0.261E-01    0.834E-01
RMM:   7    -0.253205286526E+04   -0.13062E-02   -0.18604E-02  9445   0.113E-01    0.306E-01
RMM:   8    -0.253205237964E+04    0.48562E-03   -0.48826E-03  8016   0.803E-02    0.282E-01
RMM:   9    -0.253205221965E+04    0.15999E-03   -0.24436E-03  7786   0.504E-02    0.104E-01
RMM:  10    -0.253205223773E+04   -0.18087E-04   -0.11804E-03  6143   0.351E-02    0.745E-02
RMM:  11    -0.253205226799E+04   -0.30260E-04   -0.28087E-04  4142   0.250E-02
  12 F= -.25320523E+04 E0= -.25320501E+04  d E =-.352002E+00  mag=   248.0000
       N       E                     dE             d eps       ncg     rms          rms(c)
DAV:   1    -0.253192765020E+04    0.12459E+00   -0.41838E+01  6880   0.565E+00    0.320E+00
RMM:   2    -0.253212921765E+04   -0.20157E+00   -0.17252E+00  7683   0.220E+00    0.190E+00
RMM:   3    -0.253220201027E+04   -0.72793E-01   -0.51545E-01  8650   0.697E-01    0.822E-01
RMM:   4    -0.253219873417E+04    0.32761E-02   -0.45597E-02  8751   0.259E-01    0.779E-01
RMM:   5    -0.253219739362E+04    0.13406E-02   -0.14708E-02  9193   0.933E-02    0.560E-01
RMM:   6    -0.253219428404E+04    0.31096E-02   -0.12349E-02  8259   0.127E-01    0.382E-01
RMM:   7    -0.253219452119E+04   -0.23715E-03   -0.70424E-03  8429   0.633E-02    0.169E-01
RMM:   8    -0.253219446639E+04    0.54802E-04   -0.10480E-03  5846   0.439E-02    0.139E-01
RMM:   9    -0.253219435471E+04    0.11168E-03   -0.30931E-04  4192   0.310E-02    0.804E-02
RMM:  10    -0.253219433615E+04    0.18563E-04   -0.34994E-04  4445   0.242E-02
  13 F= -.25321943E+04 E0= -.25321922E+04  d E =-.142068E+00  mag=   248.0000
       N       E                     dE             d eps       ncg     rms          rms(c)
DAV:   1    -0.253204832226E+04    0.14603E+00   -0.36862E+01  7200   0.530E+00    0.299E+00
RMM:   2    -0.253222600765E+04   -0.17769E+00   -0.15200E+00  7691   0.206E+00    0.177E+00
RMM:   3    -0.253228954255E+04   -0.63535E-01   -0.44981E-01  8637   0.650E-01    0.767E-01
RMM:   4    -0.253228652392E+04    0.30186E-02   -0.39431E-02  8718   0.242E-01    0.724E-01
RMM:   5    -0.253228530260E+04    0.12213E-02   -0.12791E-02  9078   0.879E-02    0.519E-01
RMM:   6    -0.253228255373E+04    0.27489E-02   -0.11043E-02  8224   0.120E-01    0.351E-01
RMM:   7    -0.253228276598E+04   -0.21225E-03   -0.61532E-03  8280   0.595E-02    0.157E-01
RMM:   8    -0.253228271191E+04    0.54069E-04   -0.86870E-04  5590   0.423E-02
  14 F= -.25322827E+04 E0= -.25322800E+04  d E =-.230444E+00  mag=   248.0000
       N       E                     dE             d eps       ncg     rms          rms(c)
DAV:   1    -0.253138742042E+04    0.89535E+00   -0.14721E+02  7040   0.106E+01    0.600E+00
RMM:   2    -0.253210348672E+04   -0.71607E+00   -0.61175E+00  7689   0.413E+00    0.362E+00
RMM:   3    -0.253235809174E+04   -0.25461E+00   -0.17978E+00  8624   0.130E+00    0.155E+00
RMM:   4    -0.253234752118E+04    0.10571E-01   -0.16092E-01  8839   0.482E-01    0.148E+00
RMM:   5    -0.253234296194E+04    0.45592E-02   -0.51942E-02  9612   0.172E-01    0.107E+00
RMM:   6    -0.253233191943E+04    0.11043E-01   -0.42131E-02  8315   0.231E-01    0.733E-01
RMM:   7    -0.253233257754E+04   -0.65810E-03   -0.25685E-02  8929   0.120E-01    0.325E-01
RMM:   8    -0.253233258150E+04   -0.39632E-05   -0.46578E-03  7706   0.743E-02    0.262E-01
RMM:   9    -0.253233215376E+04    0.42774E-03   -0.16849E-03  7048   0.501E-02    0.152E-01
RMM:  10    -0.253233208794E+04    0.65829E-04   -0.11787E-03  6467   0.350E-02    0.107E-01
RMM:  11    -0.253233210316E+04   -0.15224E-04   -0.52560E-04  4831   0.324E-02
  15 F= -.25323321E+04 E0= -.25323273E+04  d E =-.279835E+00  mag=   248.0000
       N       E                     dE             d eps       ncg     rms          rms(c)
DAV:   1    -0.253226912511E+04    0.62963E-01   -0.10574E+01  7280   0.282E+00    0.161E+00
RMM:   2    -0.253231924472E+04   -0.50120E-01   -0.44323E-01  7767   0.109E+00    0.927E-01
RMM:   3    -0.253233715363E+04   -0.17909E-01   -0.12647E-01  8561   0.340E-01    0.390E-01
RMM:   4    -0.253233621134E+04    0.94230E-03   -0.10104E-02  8106   0.132E-01    0.370E-01
RMM:   5    -0.253233588876E+04    0.32257E-03   -0.33172E-03  7617   0.495E-02    0.267E-01
RMM:   6    -0.253233513255E+04    0.75622E-03   -0.31655E-03  7482   0.651E-02    0.164E-01
RMM:   7    -0.253233519818E+04   -0.65635E-04   -0.15166E-03  6368   0.367E-02    0.745E-02
RMM:   8    -0.253233522217E+04   -0.23983E-04   -0.26696E-04  4137   0.314E-02
  16 F= -.25323352E+04 E0= -.25323311E+04  d E =-.282954E+00  mag=   248.0000
       N       E                     dE             d eps       ncg     rms          rms(c)
DAV:   1    -0.253228499951E+04    0.50199E-01   -0.31313E+01  6560   0.484E+00    0.206E+00
RMM:   2    -0.253241103024E+04   -0.12603E+00   -0.11224E+00  7603   0.181E+00    0.130E+00
RMM:   3    -0.253245024677E+04   -0.39217E-01   -0.31548E-01  8588   0.546E-01    0.544E-01
RMM:   4    -0.253244759890E+04    0.26479E-02   -0.30126E-02  8717   0.192E-01    0.430E-01
RMM:   5    -0.253244570011E+04    0.18988E-02   -0.10377E-02  8931   0.843E-02    0.331E-01
RMM:   6    -0.253244467736E+04    0.10228E-02   -0.59510E-03  8499   0.755E-02    0.179E-01
RMM:   7    -0.253244469146E+04   -0.14097E-04   -0.32988E-03  7782   0.482E-02    0.991E-02
RMM:   8    -0.253244474124E+04   -0.49779E-04   -0.72713E-04  5401   0.330E-02
  17 F= -.25324447E+04 E0= -.25324409E+04  d E =-.109519E+00  mag=   248.0000
       N       E                     dE             d eps       ncg     rms          rms(c)
DAV:   1    -0.253173003699E+04    0.71465E+00   -0.14097E+02  6640   0.103E+01    0.432E+00
RMM:   2    -0.253229999908E+04   -0.56996E+00   -0.51022E+00  7631   0.383E+00    0.261E+00
RMM:   3    -0.253247719130E+04   -0.17719E+00   -0.14270E+00  8622   0.115E+00    0.117E+00
RMM:   4    -0.253246467796E+04    0.12513E-01   -0.13377E-01  8867   0.407E-01    0.919E-01
RMM:   5    -0.253245675738E+04    0.79206E-02   -0.49847E-02  9351   0.176E-01    0.710E-01
RMM:   6    -0.253245230206E+04    0.44553E-02   -0.27306E-02  8878   0.154E-01    0.389E-01
RMM:   7    -0.253245245727E+04   -0.15521E-03   -0.15769E-02  9397   0.976E-02    0.214E-01
RMM:   8    -0.253245273629E+04   -0.27902E-03   -0.42499E-03  8588   0.509E-02    0.133E-01
RMM:   9    -0.253245272765E+04    0.86362E-05   -0.96257E-04  5630   0.306E-02
  18 F= -.25324527E+04 E0= -.25324494E+04  d E =-.117505E+00  mag=   248.0000
       N       E                     dE             d eps       ncg     rms          rms(c)
DAV:   1    -0.253231909288E+04    0.13364E+00   -0.32739E+01  6880   0.496E+00    0.214E+00
RMM:   2    -0.253245277847E+04   -0.13369E+00   -0.11788E+00  7632   0.186E+00    0.139E+00
RMM:   3    -0.253249351076E+04   -0.40732E-01   -0.32669E-01  8557   0.555E-01    0.555E-01
RMM:   4    -0.253249062181E+04    0.28890E-02   -0.30535E-02  8774   0.194E-01    0.442E-01
RMM:   5    -0.253248843012E+04    0.21917E-02   -0.10596E-02  8778   0.828E-02    0.328E-01
RMM:   6    -0.253248723905E+04    0.11911E-02   -0.62187E-03  8338   0.801E-02    0.180E-01
RMM:   7    -0.253248725948E+04   -0.20427E-04   -0.34495E-03  7803   0.472E-02    0.102E-01
RMM:   8    -0.253248727298E+04   -0.13509E-04   -0.61548E-04  5089   0.307E-02
  19 F= -.25324873E+04 E0= -.25324837E+04  d E =-.152051E+00  mag=   248.0000
       N       E                     dE             d eps       ncg     rms          rms(c)
DAV:   1    -0.253245189652E+04    0.35363E-01   -0.13043E+01  6640   0.316E+00    0.115E+00
RMM:   2    -0.253251549145E+04   -0.63595E-01   -0.63980E-01  8027   0.126E+00    0.790E-01
RMM:   3    -0.253253297388E+04   -0.17482E-01   -0.15170E-01  8926   0.362E-01    0.442E-01
RMM:   4    -0.253253248190E+04    0.49198E-03   -0.16733E-02  9219   0.126E-01    0.364E-01
RMM:   5    -0.253253197458E+04    0.50733E-03   -0.47026E-03  8671   0.564E-02    0.282E-01
RMM:   6    -0.253253135554E+04    0.61903E-03   -0.40995E-03  8216   0.664E-02    0.192E-01
RMM:   7    -0.253253145893E+04   -0.10339E-03   -0.21432E-03  7482   0.442E-02    0.601E-02
RMM:   8    -0.253253143278E+04    0.26155E-04   -0.21877E-04  4008   0.285E-02
  20 F= -.25325314E+04 E0= -.25325289E+04  d E =-.441598E-01  mag=   248.0000
       N       E                     dE             d eps       ncg     rms          rms(c)
DAV:   1    -0.253240214630E+04    0.12931E+00   -0.27075E+01  6560   0.455E+00    0.167E+00
RMM:   2    -0.253253458399E+04   -0.13244E+00   -0.13386E+00  8033   0.181E+00    0.113E+00
RMM:   3    -0.253257121687E+04   -0.36633E-01   -0.31875E-01  8950   0.526E-01    0.636E-01
RMM:   4    -0.253257027948E+04    0.93738E-03   -0.36281E-02  9412   0.179E-01    0.521E-01
RMM:   5    -0.253256922466E+04    0.10548E-02   -0.10762E-02  9447   0.820E-02    0.389E-01
RMM:   6    -0.253256822928E+04    0.99538E-03   -0.79631E-03  8654   0.872E-02    0.254E-01
RMM:   7    -0.253256849473E+04   -0.26545E-03   -0.42029E-03  8249   0.560E-02    0.955E-02
RMM:   8    -0.253256844335E+04    0.51376E-04   -0.41811E-04  4538   0.334E-02
  21 F= -.25325684E+04 E0= -.25325669E+04  d E =-.811704E-01  mag=   248.0000
       N       E                     dE             d eps       ncg     rms          rms(c)
DAV:   1    -0.253188107119E+04    0.68742E+00   -0.10833E+02  6560   0.911E+00    0.337E+00
RMM:   2    -0.253241355470E+04   -0.53248E+00   -0.53626E+00  8008   0.362E+00    0.231E+00
RMM:   3    -0.253256134889E+04   -0.14779E+00   -0.12876E+00  8965   0.106E+00    0.130E+00
RMM:   4    -0.253255722945E+04    0.41194E-02   -0.14608E-01  9460   0.357E-01    0.106E+00
RMM:   5    -0.253255206148E+04    0.51680E-02   -0.44108E-02  9627   0.170E-01    0.773E-01
RMM:   6    -0.253254868462E+04    0.33769E-02   -0.30522E-02  8742   0.165E-01    0.476E-01
RMM:   7    -0.253254974676E+04   -0.10621E-02   -0.15303E-02  8997   0.103E-01    0.201E-01
RMM:   8    -0.253254963445E+04    0.11231E-03   -0.21531E-03  7649   0.524E-02    0.127E-01
RMM:   9    -0.253254944811E+04    0.18634E-03   -0.11750E-03  6171   0.392E-02    0.916E-02
RMM:  10    -0.253254945558E+04   -0.74730E-05   -0.57624E-04  4848   0.301E-02
  22 F= -.25325495E+04 E0= -.25325488E+04  d E =-.621826E-01  mag=   248.0000
       N       E                     dE             d eps       ncg     rms          rms(c)
DAV:   1    -0.253226156987E+04    0.28788E+00   -0.51962E+01  6640   0.632E+00    0.230E+00
RMM:   2    -0.253251009784E+04   -0.24853E+00   -0.25049E+00  7995   0.252E+00    0.158E+00
RMM:   3    -0.253258135880E+04   -0.71261E-01   -0.62318E-01  8903   0.743E-01    0.869E-01
RMM:   4    -0.253257963367E+04    0.17251E-02   -0.68871E-02  9232   0.258E-01    0.718E-01
RMM:   5    -0.253257765304E+04    0.19806E-02   -0.19077E-02  9542   0.112E-01    0.550E-01
RMM:   6    -0.253257534255E+04    0.23105E-02   -0.14866E-02  8639   0.117E-01    0.359E-01
RMM:   7    -0.253257581516E+04   -0.47261E-03   -0.85220E-03  8645   0.789E-02    0.121E-01
RMM:   8    -0.253257570183E+04    0.11332E-03   -0.82283E-04  5534   0.412E-02    0.818E-02
RMM:   9    -0.253257562362E+04    0.78214E-04   -0.41435E-04  4464   0.306E-02
  23 F= -.25325756E+04 E0= -.25325745E+04  d E =-.883506E-01  mag=   248.0000
       N       E                     dE             d eps       ncg     rms          rms(c)
DAV:   1    -0.253248270881E+04    0.92993E-01   -0.21159E+01  6880   0.408E+00    0.172E+00
RMM:   2    -0.253257792398E+04   -0.95215E-01   -0.91336E-01  8116   0.151E+00    0.103E+00
RMM:   3    -0.253260242682E+04   -0.24503E-01   -0.19983E-01  8686   0.426E-01    0.444E-01
RMM:   4    -0.253260127049E+04    0.11563E-02   -0.20713E-02  8509   0.166E-01    0.365E-01
RMM:   5    -0.253260037699E+04    0.89351E-03   -0.71198E-03  8590   0.685E-02    0.250E-01
RMM:   6    -0.253259976756E+04    0.60943E-03   -0.47337E-03  8089   0.706E-02    0.179E-01
RMM:   7    -0.253259988406E+04   -0.11650E-03   -0.17145E-03  6816   0.385E-02    0.740E-02
RMM:   8    -0.253259990417E+04   -0.20117E-04   -0.28758E-04  4201   0.337E-02
  24 F= -.25325999E+04 E0= -.25325986E+04  d E =-.242806E-01  mag=   248.0000
       N       E                     dE             d eps       ncg     rms          rms(c)
DAV:   1    -0.253258594136E+04    0.13943E-01   -0.26021E+00  7280   0.143E+00    0.625E-01
RMM:   2    -0.253259800251E+04   -0.12061E-01   -0.11591E-01  8121   0.537E-01    0.391E-01
RMM:   3    -0.253260121027E+04   -0.32078E-02   -0.26367E-02  8686   0.153E-01    0.164E-01
RMM:   4    -0.253260109014E+04    0.12013E-03   -0.28490E-03  7438   0.608E-02    0.129E-01
RMM:   5    -0.253260096314E+04    0.12700E-03   -0.73157E-04  5224   0.314E-02    0.944E-02
RMM:   6    -0.253260091028E+04    0.52856E-04   -0.63606E-04  5227   0.331E-02
  25 F= -.25326009E+04 E0= -.25325996E+04  d E =-.252867E-01  mag=   248.0000
       N       E                     dE             d eps       ncg     rms          rms(c)
DAV:   1    -0.253254057006E+04    0.60393E-01   -0.17493E+01  7120   0.374E+00    0.140E+00
RMM:   2    -0.253259815800E+04   -0.57588E-01   -0.73467E-01  7674   0.145E+00    0.100E+00
RMM:   3    -0.253261842879E+04   -0.20271E-01   -0.20099E-01  8784   0.461E-01    0.522E-01
RMM:   4    -0.253261782931E+04    0.59948E-03   -0.23611E-02  9046   0.159E-01    0.481E-01
RMM:   5    -0.253261698400E+04    0.84531E-03   -0.70814E-03  8969   0.710E-02    0.321E-01
RMM:   6    -0.253261654358E+04    0.44043E-03   -0.55351E-03  8301   0.769E-02    0.208E-01
RMM:   7    -0.253261668148E+04   -0.13791E-03   -0.18892E-03  7254   0.407E-02    0.105E-01
RMM:   8    -0.253261655635E+04    0.12513E-03   -0.25663E-04  4081   0.318E-02    0.574E-02
RMM:   9    -0.253261650747E+04    0.48883E-04   -0.54079E-04  5050   0.274E-02
  26 F= -.25326165E+04 E0= -.25326148E+04  d E =-.155972E-01  mag=   248.0000
       N       E                     dE             d eps       ncg     rms          rms(c)
DAV:   1    -0.253261660213E+04   -0.45783E-04   -0.71993E-03  9200   0.840E-02    0.357E-02
RMM:   2    -0.253261661555E+04   -0.13417E-04   -0.22032E-04  3989   0.313E-02
  27 F= -.25326166E+04 E0= -.25326149E+04  d E =-.157053E-01  mag=   248.0000
       N       E                     dE             d eps       ncg     rms          rms(c)
DAV:   1    -0.253260775269E+04    0.88494E-02   -0.26448E+00  6560   0.142E+00    0.665E-01
RMM:   2    -0.253262059444E+04   -0.12842E-01   -0.12642E-01  7931   0.568E-01    0.438E-01
RMM:   3    -0.253262412509E+04   -0.35306E-02   -0.29102E-02  8737   0.165E-01    0.216E-01
RMM:   4    -0.253262397771E+04    0.14738E-03   -0.33137E-03  7991   0.649E-02    0.180E-01
RMM:   5    -0.253262382194E+04    0.15577E-03   -0.86250E-04  5656   0.333E-02    0.132E-01
RMM:   6    -0.253262374910E+04    0.72841E-04   -0.86198E-04  5789   0.365E-02
  28 F= -.25326237E+04 E0= -.25326222E+04  d E =-.713355E-02  mag=   248.0000
       N       E                     dE             d eps       ncg     rms          rms(c)
DAV:   1    -0.253261031238E+04    0.13510E-01   -0.21695E+00  6400   0.128E+00    0.619E-01
RMM:   2    -0.253262080412E+04   -0.10492E-01   -0.10489E-01  7954   0.513E-01    0.422E-01
RMM:   3    -0.253262387626E+04   -0.30721E-02   -0.25157E-02  8813   0.152E-01    0.207E-01
RMM:   4    -0.253262381702E+04    0.59235E-04   -0.30339E-03  7993   0.600E-02    0.168E-01
RMM:   5    -0.253262371874E+04    0.98279E-04   -0.78340E-04  5441   0.324E-02
  29 F= -.25326237E+04 E0= -.25326223E+04  d E =-.710319E-02  mag=   248.0000
       N       E                     dE             d eps       ncg     rms          rms(c)
DAV:   1    -0.253260916051E+04    0.14657E-01   -0.20087E+00  7440   0.131E+00    0.115E+00
RMM:   2    -0.253262137852E+04   -0.12218E-01   -0.12358E-01  7650   0.596E-01    0.766E-01
RMM:   3    -0.253262729032E+04   -0.59118E-02   -0.38496E-02  8473   0.189E-01    0.267E-01
RMM:   4    -0.253262706286E+04    0.22746E-03   -0.42823E-03  7567   0.903E-02    0.260E-01
RMM:   5    -0.253262696745E+04    0.95417E-04   -0.11343E-03  5721   0.353E-02    0.179E-01
RMM:   6    -0.253262681946E+04    0.14798E-03   -0.11102E-03  6111   0.449E-02    0.813E-02
RMM:   7    -0.253262682595E+04   -0.64886E-05   -0.26466E-04  4157   0.277E-02
  30 F= -.25326268E+04 E0= -.25326254E+04  d E =-.310721E-02  mag=   248.0000
       N       E                     dE             d eps       ncg     rms          rms(c)
DAV:   1    -0.253262640439E+04    0.41507E-03   -0.10007E-01  7840   0.294E-01    0.242E-01
RMM:   2    -0.253262692286E+04   -0.51847E-03   -0.56125E-03  7406   0.132E-01    0.158E-01
RMM:   3    -0.253262714160E+04   -0.21874E-03   -0.15030E-03  5856   0.439E-02    0.706E-02
RMM:   4    -0.253262713533E+04    0.62733E-05   -0.22984E-04  3890   0.324E-02
  31 F= -.25326271E+04 E0= -.25326257E+04  d E =-.341658E-02  mag=   248.0000
       N       E                     dE             d eps       ncg     rms          rms(c)
DAV:   1    -0.253262268081E+04    0.44608E-02   -0.10910E+00  7280   0.101E+00    0.730E-01
RMM:   2    -0.253262558595E+04   -0.29051E-02   -0.73080E-02  7640   0.460E-01    0.617E-01
RMM:   3    -0.253262757035E+04   -0.19844E-02   -0.18921E-02  8646   0.139E-01    0.230E-01
RMM:   4    -0.253262741787E+04    0.15248E-03   -0.20598E-03  7300   0.588E-02    0.189E-01
RMM:   5    -0.253262730167E+04    0.11619E-03   -0.59612E-04  5007   0.338E-02    0.109E-01
RMM:   6    -0.253262734216E+04   -0.40487E-04   -0.55285E-04  4982   0.299E-02
  32 F= -.25326273E+04 E0= -.25326258E+04  d E =-.206832E-03  mag=   248.0000
       N       E                     dE             d eps       ncg     rms          rms(c)
DAV:   1    -0.253262737186E+04   -0.70188E-04   -0.45941E-04  8480   0.419E-02    0.317E-02
RMM:   2    -0.253262736885E+04    0.30065E-05   -0.60830E-05  3372   0.166E-02
  33 F= -.25326274E+04 E0= -.25326259E+04  d E =-.233527E-03  mag=   248.0000
